M 0.00000 0 (100.00, 100.00, 0.00), (100.00, 100.00), 2000.00
M 0.00000 1 (300.00, 200.00, 0.00), (300.00, 410.00), 2000.00
M 0.00000 2 (500.00, 200.00, 0.00), (500.00, 410.00), 2000.00
M 0.00000 3 (700.00, 200.00, 0.00), (700.00, 410.00), 2000.00
M 0.00000 4 (900.00, 200.00, 0.00), (900.00, 410.00), 2000.00
M 0.00000 5 (100.00, 100.00, 0.00), (310.00, 100.00), 2000.00
r 0.300000000 _0_ RTR  --- 0 tcp 40 [0 0 0 0] ------- [0:0 5:0 32 0] [0 0] 0 0
s 0.300000000 _0_ RTR  --- 0 AODV 48 [0 0 0 0] ------- [0:255 -1:255 30 0] [0x2 1 1 [5 0] [0 4]] (REQUEST)
s 0.300575000 _0_ MAC  --- 0 AODV 106 [0 ffffffff 0 800] ------- [0:255 -1:255 30 0] [0x2 1 1 [5 0] [0 4]] (REQUEST)
r 0.301423700 _5_ MAC  --- 0 AODV 48 [0 ffffffff 0 800] ------- [0:255 -1:255 30 0] [0x2 1 1 [5 0] [0 4]] (REQUEST)
r 0.301448700 _5_ RTR  --- 0 AODV 48 [0 ffffffff 0 800] ------- [0:255 -1:255 30 0] [0x2 1 1 [5 0] [0 4]] (REQUEST)
s 0.301448700 _5_ RTR  --- 0 AODV 44 [0 0 0 0] ------- [5:255 0:255 30 0] [0x4 1 [5 4] 10.000000] (REPLY)
s 0.301743700 _5_ MAC  --- 0 ARP 86 [0 ffffffff 5 806] ------- [REQUEST 5/5 0/0]
r 0.302432400 _0_ MAC  --- 0 ARP 28 [0 ffffffff 5 806] ------- [REQUEST 5/5 0/0]
s 0.303087400 _0_ MAC  --- 0 RTS 44 [52e 5 0 0] 
r 0.303440100 _5_ MAC  --- 0 RTS 44 [52e 5 0 0] 
s 0.303450100 _5_ MAC  --- 0 CTS 38 [3f4 0 0 0] 
r 0.303754800 _0_ MAC  --- 0 CTS 38 [3f4 0 0 0] 
s 0.303764800 _0_ MAC  --- 0 ARP 86 [13a 5 0 806] ------- [REPLY 0/0 5/5]
r 0.304453500 _5_ MAC  --- 0 ARP 28 [13a 5 0 806] ------- [REPLY 0/0 5/5]
s 0.304463500 _5_ MAC  --- 0 ACK 38 [0 0 0 0] 
r 0.304768200 _0_ MAC  --- 0 ACK 38 [0 0 0 0] 
s 0.304837500 _5_ MAC  --- 0 RTS 44 [5ae 0 5 0] 
r 0.305190200 _0_ MAC  --- 0 RTS 44 [5ae 0 5 0] 
s 0.305200200 _0_ MAC  --- 0 CTS 38 [474 5 0 0] 
r 0.305504900 _5_ MAC  --- 0 CTS 38 [474 5 0 0] 
s 0.305514900 _5_ MAC  --- 0 AODV 102 [13a 0 5 800] ------- [5:255 0:255 30 0] [0x4 1 [5 4] 10.000000] (REPLY)
r 0.306331600 _0_ MAC  --- 0 AODV 44 [13a 0 5 800] ------- [5:255 0:255 30 0] [0x4 1 [5 4] 10.000000] (REPLY)
s 0.306341600 _0_ MAC  --- 0 ACK 38 [0 5 0 0] 
r 0.306356600 _0_ RTR  --- 0 AODV 44 [13a 0 5 800] ------- [5:255 0:255 30 0] [0x4 1 [5 4] 10.000000] (REPLY)
s 0.306356600 _0_ RTR  --- 0 tcp 40 [0 0 0 0] ------- [0:0 5:0 30 5] [0 0] 0 0
r 0.306646300 _5_ MAC  --- 0 ACK 38 [0 5 0 0] 
s 0.306795600 _0_ MAC  --- 0 RTS 44 [58e 5 0 0] 
r 0.307148300 _5_ MAC  --- 0 RTS 44 [58e 5 0 0] 
s 0.307158300 _5_ MAC  --- 0 CTS 38 [454 0 0 0] 
r 0.307463000 _0_ MAC  --- 0 CTS 38 [454 0 0 0] 
s 0.307473000 _0_ MAC  --- 0 tcp 98 [13a 5 0 800] ------- [0:0 5:0 30 5] [0 0] 0 0
r 0.308257700 _5_ MAC  --- 0 tcp 40 [13a 5 0 800] ------- [0:0 5:0 30 5] [0 0] 1 0
s 0.308267700 _5_ MAC  --- 0 ACK 38 [0 0 0 0] 
r 0.308282700 _5_ RTR  --- 1 ack 40 [0 0 0 0] ------- [5:0 0:0 32 0] [0 0] 0 0
s 0.308282700 _5_ RTR  --- 1 ack 40 [0 0 0 0] ------- [5:0 0:0 30 0] [0 0] 0 0
r 0.308572400 _0_ MAC  --- 0 ACK 38 [0 0 0 0] 
s 0.308781700 _5_ MAC  --- 0 RTS 44 [58e 0 5 0] 
r 0.309134400 _0_ MAC  --- 0 RTS 44 [58e 0 5 0] 
s 0.309144400 _0_ MAC  --- 0 CTS 38 [454 5 0 0] 
r 0.309449100 _5_ MAC  --- 0 CTS 38 [454 5 0 0] 
s 0.309459100 _5_ MAC  --- 1 ack 98 [13a 0 5 800] ------- [5:0 0:0 30 0] [0 0] 0 0
r 0.310243800 _0_ MAC  --- 1 ack 40 [13a 0 5 800] ------- [5:0 0:0 30 0] [0 0] 1 0
s 0.310253800 _0_ MAC  --- 0 ACK 38 [0 5 0 0] 
r 0.310268800 _0_ RTR  --- 2 tcp 1040 [0 0 0 0] ------- [0:0 5:0 32 0] [1 0] 0 0
r 0.310268800 _0_ RTR  --- 3 tcp 1040 [0 0 0 0] ------- [0:0 5:0 32 0] [2 0] 0 0
s 0.310268800 _0_ RTR  --- 2 tcp 1040 [0 0 0 0] ------- [0:0 5:0 30 5] [1 0] 0 0
s 0.310268800 _0_ RTR  --- 3 tcp 1040 [0 0 0 0] ------- [0:0 5:0 30 5] [2 0] 0 0
r 0.310558500 _5_ MAC  --- 0 ACK 38 [0 5 0 0] 
s 0.310647800 _0_ MAC  --- 0 RTS 44 [24ce 5 0 0] 
r 0.311000500 _5_ MAC  --- 0 RTS 44 [24ce 5 0 0] 
s 0.311010500 _5_ MAC  --- 0 CTS 38 [2394 0 0 0] 
r 0.311315200 _0_ MAC  --- 0 CTS 38 [2394 0 0 0] 
s 0.311325200 _0_ MAC  --- 2 tcp 1098 [13a 5 0 800] ------- [0:0 5:0 30 5] [1 0] 0 0
r 0.320109900 _5_ MAC  --- 2 tcp 1040 [13a 5 0 800] ------- [0:0 5:0 30 5] [1 0] 1 0
s 0.320119900 _5_ MAC  --- 0 ACK 38 [0 0 0 0] 
r 0.320134900 _5_ RTR  --- 4 ack 40 [0 0 0 0] ------- [5:0 0:0 32 0] [1 0] 0 0
s 0.320134900 _5_ RTR  --- 4 ack 40 [0 0 0 0] ------- [5:0 0:0 30 0] [1 0] 0 0
r 0.320424600 _0_ MAC  --- 0 ACK 38 [0 0 0 0] 
s 0.320894600 _0_ MAC  --- 0 RTS 44 [24ce 5 0 0] 
r 0.321247300 _5_ MAC  --- 0 RTS 44 [24ce 5 0 0] 
s 0.321257300 _5_ MAC  --- 0 CTS 38 [2394 0 0 0] 
r 0.321562000 _0_ MAC  --- 0 CTS 38 [2394 0 0 0] 
s 0.321572000 _0_ MAC  --- 3 tcp 1098 [13a 5 0 800] ------- [0:0 5:0 30 5] [2 0] 0 0
r 0.330356700 _5_ MAC  --- 3 tcp 1040 [13a 5 0 800] ------- [0:0 5:0 30 5] [2 0] 1 0
s 0.330366700 _5_ MAC  --- 0 ACK 38 [0 0 0 0] 
r 0.330381700 _5_ RTR  --- 5 ack 40 [0 0 0 0] ------- [5:0 0:0 32 0] [2 0] 0 0
s 0.330381700 _5_ RTR  --- 5 ack 40 [0 0 0 0] ------- [5:0 0:0 30 0] [2 0] 0 0
r 0.330671400 _0_ MAC  --- 0 ACK 38 [0 0 0 0] 
s 0.330880700 _5_ MAC  --- 0 RTS 44 [58e 0 5 0] 
r 0.331233400 _0_ MAC  --- 0 RTS 44 [58e 0 5 0] 
s 0.331243400 _0_ MAC  --- 0 CTS 38 [454 5 0 0] 
r 0.331548100 _5_ MAC  --- 0 CTS 38 [454 5 0 0] 
s 0.331558100 _5_ MAC  --- 4 ack 98 [13a 0 5 800] ------- [5:0 0:0 30 0] [1 0] 0 0
r 0.332342800 _0_ MAC  --- 4 ack 40 [13a 0 5 800] ------- [5:0 0:0 30 0] [1 0] 1 0
s 0.332352800 _0_ MAC  --- 0 ACK 38 [0 5 0 0] 
r 0.332367800 _0_ RTR  --- 6 tcp 1040 [0 0 0 0] ------- [0:0 5:0 32 0] [3 0] 0 0
r 0.332367800 _0_ RTR  --- 7 tcp 1040 [0 0 0 0] ------- [0:0 5:0 32 0] [4 0] 0 0
s 0.332367800 _0_ RTR  --- 6 tcp 1040 [0 0 0 0] ------- [0:0 5:0 30 5] [3 0] 0 0
s 0.332367800 _0_ RTR  --- 7 tcp 1040 [0 0 0 0] ------- [0:0 5:0 30 5] [4 0] 0 0
r 0.332657500 _5_ MAC  --- 0 ACK 38 [0 5 0 0] 
s 0.332806800 _0_ MAC  --- 0 RTS 44 [24ce 5 0 0] 
r 0.333159500 _5_ MAC  --- 0 RTS 44 [24ce 5 0 0] 
s 0.333169500 _5_ MAC  --- 0 CTS 38 [2394 0 0 0] 
r 0.333474200 _0_ MAC  --- 0 CTS 38 [2394 0 0 0] 
s 0.333484200 _0_ MAC  --- 6 tcp 1098 [13a 5 0 800] ------- [0:0 5:0 30 5] [3 0] 0 0
r 0.342268900 _5_ MAC  --- 6 tcp 1040 [13a 5 0 800] ------- [0:0 5:0 30 5] [3 0] 1 0
s 0.342278900 _5_ MAC  --- 0 ACK 38 [0 0 0 0] 
r 0.342293900 _5_ RTR  --- 8 ack 40 [0 0 0 0] ------- [5:0 0:0 32 0] [3 0] 0 0
s 0.342293900 _5_ RTR  --- 8 ack 40 [0 0 0 0] ------- [5:0 0:0 30 0] [3 0] 0 0
r 0.342583600 _0_ MAC  --- 0 ACK 38 [0 0 0 0] 
s 0.342793600 _0_ MAC  --- 0 RTS 44 [24ce 5 0 0] 
r 0.343146300 _5_ MAC  --- 0 RTS 44 [24ce 5 0 0] 
s 0.343156300 _5_ MAC  --- 0 CTS 38 [2394 0 0 0] 
r 0.343461000 _0_ MAC  --- 0 CTS 38 [2394 0 0 0] 
s 0.343471000 _0_ MAC  --- 7 tcp 1098 [13a 5 0 800] ------- [0:0 5:0 30 5] [4 0] 0 0
r 0.352255700 _5_ MAC  --- 7 tcp 1040 [13a 5 0 800] ------- [0:0 5:0 30 5] [4 0] 1 0
s 0.352265700 _5_ MAC  --- 0 ACK 38 [0 0 0 0] 
r 0.352280700 _5_ RTR  --- 9 ack 40 [0 0 0 0] ------- [5:0 0:0 32 0] [4 0] 0 0
s 0.352280700 _5_ RTR  --- 9 ack 40 [0 0 0 0] ------- [5:0 0:0 30 0] [4 0] 0 0
r 0.352570400 _0_ MAC  --- 0 ACK 38 [0 0 0 0] 
s 0.352959700 _5_ MAC  --- 0 RTS 44 [58e 0 5 0] 
r 0.353312400 _0_ MAC  --- 0 RTS 44 [58e 0 5 0] 
s 0.353322400 _0_ MAC  --- 0 CTS 38 [454 5 0 0] 
r 0.353627100 _5_ MAC  --- 0 CTS 38 [454 5 0 0] 
s 0.353637100 _5_ MAC  --- 5 ack 98 [13a 0 5 800] ------- [5:0 0:0 30 0] [2 0] 0 0
r 0.354421800 _0_ MAC  --- 5 ack 40 [13a 0 5 800] ------- [5:0 0:0 30 0] [2 0] 1 0
s 0.354431800 _0_ MAC  --- 0 ACK 38 [0 5 0 0] 
r 0.354446800 _0_ RTR  --- 10 tcp 1040 [0 0 0 0] ------- [0:0 5:0 32 0] [5 0] 0 0
r 0.354446800 _0_ RTR  --- 11 tcp 1040 [0 0 0 0] ------- [0:0 5:0 32 0] [6 0] 0 0
s 0.354446800 _0_ RTR  --- 10 tcp 1040 [0 0 0 0] ------- [0:0 5:0 30 5] [5 0] 0 0
s 0.354446800 _0_ RTR  --- 11 tcp 1040 [0 0 0 0] ------- [0:0 5:0 30 5] [6 0] 0 0
r 0.354736500 _5_ MAC  --- 0 ACK 38 [0 5 0 0] 
s 0.354985800 _0_ MAC  --- 0 RTS 44 [24ce 5 0 0] 
r 0.355338500 _5_ MAC  --- 0 RTS 44 [24ce 5 0 0] 
s 0.355348500 _5_ MAC  --- 0 CTS 38 [2394 0 0 0] 
r 0.355653200 _0_ MAC  --- 0 CTS 38 [2394 0 0 0] 
s 0.355663200 _0_ MAC  --- 10 tcp 1098 [13a 5 0 800] ------- [0:0 5:0 30 5] [5 0] 0 0
r 0.364447900 _5_ MAC  --- 10 tcp 1040 [13a 5 0 800] ------- [0:0 5:0 30 5] [5 0] 1 0
s 0.364457900 _5_ MAC  --- 0 ACK 38 [0 0 0 0] 
r 0.364472900 _5_ RTR  --- 12 ack 40 [0 0 0 0] ------- [5:0 0:0 32 0] [5 0] 0 0
s 0.364472900 _5_ RTR  --- 12 ack 40 [0 0 0 0] ------- [5:0 0:0 30 0] [5 0] 0 0
r 0.364762600 _0_ MAC  --- 0 ACK 38 [0 0 0 0] 
s 0.365071900 _5_ MAC  --- 0 RTS 44 [58e 0 5 0] 
r 0.365424600 _0_ MAC  --- 0 RTS 44 [58e 0 5 0] 
s 0.365434600 _0_ MAC  --- 0 CTS 38 [454 5 0 0] 
r 0.365739300 _5_ MAC  --- 0 CTS 38 [454 5 0 0] 
s 0.365749300 _5_ MAC  --- 8 ack 98 [13a 0 5 800] ------- [5:0 0:0 30 0] [3 0] 0 0
r 0.366534000 _0_ MAC  --- 8 ack 40 [13a 0 5 800] ------- [5:0 0:0 30 0] [3 0] 1 0
s 0.366544000 _0_ MAC  --- 0 ACK 38 [0 5 0 0] 
r 0.366559000 _0_ RTR  --- 13 tcp 1040 [0 0 0 0] ------- [0:0 5:0 32 0] [7 0] 0 0
r 0.366559000 _0_ RTR  --- 14 tcp 1040 [0 0 0 0] ------- [0:0 5:0 32 0] [8 0] 0 0
s 0.366559000 _0_ RTR  --- 13 tcp 1040 [0 0 0 0] ------- [0:0 5:0 30 5] [7 0] 0 0
s 0.366559000 _0_ RTR  --- 14 tcp 1040 [0 0 0 0] ------- [0:0 5:0 30 5] [8 0] 0 0
r 0.366848700 _5_ MAC  --- 0 ACK 38 [0 5 0 0] 
s 0.367138700 _5_ MAC  --- 0 RTS 44 [58e 0 5 0] 
r 0.367491400 _0_ MAC  --- 0 RTS 44 [58e 0 5 0] 
s 0.367501400 _0_ MAC  --- 0 CTS 38 [454 5 0 0] 
r 0.367806100 _5_ MAC  --- 0 CTS 38 [454 5 0 0] 
s 0.367816100 _5_ MAC  --- 9 ack 98 [13a 0 5 800] ------- [5:0 0:0 30 0] [4 0] 0 0
r 0.368600800 _0_ MAC  --- 9 ack 40 [13a 0 5 800] ------- [5:0 0:0 30 0] [4 0] 1 0
s 0.368610800 _0_ MAC  --- 0 ACK 38 [0 5 0 0] 
r 0.368625800 _0_ RTR  --- 15 tcp 1040 [0 0 0 0] ------- [0:0 5:0 32 0] [9 0] 0 0
r 0.368625800 _0_ RTR  --- 16 tcp 1040 [0 0 0 0] ------- [0:0 5:0 32 0] [10 0] 0 0
s 0.368625800 _0_ RTR  --- 15 tcp 1040 [0 0 0 0] ------- [0:0 5:0 30 5] [9 0] 0 0
s 0.368625800 _0_ RTR  --- 16 tcp 1040 [0 0 0 0] ------- [0:0 5:0 30 5] [10 0] 0 0
r 0.368915500 _5_ MAC  --- 0 ACK 38 [0 5 0 0] 
s 0.368965500 _5_ MAC  --- 0 RTS 44 [58e 0 5 0] 
r 0.369318200 _0_ MAC  --- 0 RTS 44 [58e 0 5 0] 
s 0.369328200 _0_ MAC  --- 0 CTS 38 [454 5 0 0] 
r 0.369632900 _5_ MAC  --- 0 CTS 38 [454 5 0 0] 
s 0.369642900 _5_ MAC  --- 12 ack 98 [13a 0 5 800] ------- [5:0 0:0 30 0] [5 0] 0 0
r 0.370427600 _0_ MAC  --- 12 ack 40 [13a 0 5 800] ------- [5:0 0:0 30 0] [5 0] 1 0
s 0.370437600 _0_ MAC  --- 0 ACK 38 [0 5 0 0] 
r 0.370452600 _0_ RTR  --- 17 tcp 1040 [0 0 0 0] ------- [0:0 5:0 32 0] [11 0] 0 0
r 0.370452600 _0_ RTR  --- 18 tcp 1040 [0 0 0 0] ------- [0:0 5:0 32 0] [12 0] 0 0
s 0.370452600 _0_ RTR  --- 17 tcp 1040 [0 0 0 0] ------- [0:0 5:0 30 5] [11 0] 0 0
s 0.370452600 _0_ RTR  --- 18 tcp 1040 [0 0 0 0] ------- [0:0 5:0 30 5] [12 0] 0 0
r 0.370742300 _5_ MAC  --- 0 ACK 38 [0 5 0 0] 
s 0.370811600 _0_ MAC  --- 0 RTS 44 [24ce 5 0 0] 
r 0.371164300 _5_ MAC  --- 0 RTS 44 [24ce 5 0 0] 
s 0.371174300 _5_ MAC  --- 0 CTS 38 [2394 0 0 0] 
r 0.371479000 _0_ MAC  --- 0 CTS 38 [2394 0 0 0] 
s 0.371489000 _0_ MAC  --- 11 tcp 1098 [13a 5 0 800] ------- [0:0 5:0 30 5] [6 0] 0 0
r 0.380273700 _5_ MAC  --- 11 tcp 1040 [13a 5 0 800] ------- [0:0 5:0 30 5] [6 0] 1 0
s 0.380283700 _5_ MAC  --- 0 ACK 38 [0 0 0 0] 
r 0.380298700 _5_ RTR  --- 19 ack 40 [0 0 0 0] ------- [5:0 0:0 32 0] [6 0] 0 0
s 0.380298700 _5_ RTR  --- 19 ack 40 [0 0 0 0] ------- [5:0 0:0 30 0] [6 0] 0 0
r 0.380588400 _0_ MAC  --- 0 ACK 38 [0 0 0 0] 
s 0.380757700 _5_ MAC  --- 0 RTS 44 [58e 0 5 0] 
r 0.381110400 _0_ MAC  --- 0 RTS 44 [58e 0 5 0] 
s 0.381120400 _0_ MAC  --- 0 CTS 38 [454 5 0 0] 
r 0.381425100 _5_ MAC  --- 0 CTS 38 [454 5 0 0] 
s 0.381435100 _5_ MAC  --- 19 ack 98 [13a 0 5 800] ------- [5:0 0:0 30 0] [6 0] 0 0
r 0.382219800 _0_ MAC  --- 19 ack 40 [13a 0 5 800] ------- [5:0 0:0 30 0] [6 0] 1 0
s 0.382229800 _0_ MAC  --- 0 ACK 38 [0 5 0 0] 
r 0.382244800 _0_ RTR  --- 20 tcp 1040 [0 0 0 0] ------- [0:0 5:0 32 0] [13 0] 0 0
r 0.382244800 _0_ RTR  --- 21 tcp 1040 [0 0 0 0] ------- [0:0 5:0 32 0] [14 0] 0 0
s 0.382244800 _0_ RTR  --- 20 tcp 1040 [0 0 0 0] ------- [0:0 5:0 30 5] [13 0] 0 0
s 0.382244800 _0_ RTR  --- 21 tcp 1040 [0 0 0 0] ------- [0:0 5:0 30 5] [14 0] 0 0
r 0.382534500 _5_ MAC  --- 0 ACK 38 [0 5 0 0] 
s 0.383003800 _0_ MAC  --- 0 RTS 44 [24ce 5 0 0] 
r 0.383356500 _5_ MAC  --- 0 RTS 44 [24ce 5 0 0] 
s 0.383366500 _5_ MAC  --- 0 CTS 38 [2394 0 0 0] 
r 0.383671200 _0_ MAC  --- 0 CTS 38 [2394 0 0 0] 
s 0.383681200 _0_ MAC  --- 13 tcp 1098 [13a 5 0 800] ------- [0:0 5:0 30 5] [7 0] 0 0
r 0.392465900 _5_ MAC  --- 13 tcp 1040 [13a 5 0 800] ------- [0:0 5:0 30 5] [7 0] 1 0
s 0.392475900 _5_ MAC  --- 0 ACK 38 [0 0 0 0] 
r 0.392490900 _5_ RTR  --- 22 ack 40 [0 0 0 0] ------- [5:0 0:0 32 0] [7 0] 0 0
s 0.392490900 _5_ RTR  --- 22 ack 40 [0 0 0 0] ------- [5:0 0:0 30 0] [7 0] 0 0
r 0.392780600 _0_ MAC  --- 0 ACK 38 [0 0 0 0] 
s 0.392969900 _5_ MAC  --- 0 RTS 44 [58e 0 5 0] 
r 0.393322600 _0_ MAC  --- 0 RTS 44 [58e 0 5 0] 
s 0.393332600 _0_ MAC  --- 0 CTS 38 [454 5 0 0] 
r 0.393637300 _5_ MAC  --- 0 CTS 38 [454 5 0 0] 
s 0.393647300 _5_ MAC  --- 22 ack 98 [13a 0 5 800] ------- [5:0 0:0 30 0] [7 0] 0 0
r 0.394432000 _0_ MAC  --- 22 ack 40 [13a 0 5 800] ------- [5:0 0:0 30 0] [7 0] 1 0
s 0.394442000 _0_ MAC  --- 0 ACK 38 [0 5 0 0] 
r 0.394457000 _0_ RTR  --- 23 tcp 1040 [0 0 0 0] ------- [0:0 5:0 32 0] [15 0] 0 0
r 0.394457000 _0_ RTR  --- 24 tcp 1040 [0 0 0 0] ------- [0:0 5:0 32 0] [16 0] 0 0
s 0.394457000 _0_ RTR  --- 23 tcp 1040 [0 0 0 0] ------- [0:0 5:0 30 5] [15 0] 0 0
s 0.394457000 _0_ RTR  --- 24 tcp 1040 [0 0 0 0] ------- [0:0 5:0 30 5] [16 0] 0 0
r 0.394746700 _5_ MAC  --- 0 ACK 38 [0 5 0 0] 
s 0.395196000 _0_ MAC  --- 0 RTS 44 [24ce 5 0 0] 
r 0.395548700 _5_ MAC  --- 0 RTS 44 [24ce 5 0 0] 
s 0.395558700 _5_ MAC  --- 0 CTS 38 [2394 0 0 0] 
r 0.395863400 _0_ MAC  --- 0 CTS 38 [2394 0 0 0] 
s 0.395873400 _0_ MAC  --- 14 tcp 1098 [13a 5 0 800] ------- [0:0 5:0 30 5] [8 0] 0 0
r 0.404658100 _5_ MAC  --- 14 tcp 1040 [13a 5 0 800] ------- [0:0 5:0 30 5] [8 0] 1 0
s 0.404668100 _5_ MAC  --- 0 ACK 38 [0 0 0 0] 
r 0.404683100 _5_ RTR  --- 25 ack 40 [0 0 0 0] ------- [5:0 0:0 32 0] [8 0] 0 0
s 0.404683100 _5_ RTR  --- 25 ack 40 [0 0 0 0] ------- [5:0 0:0 30 0] [8 0] 0 0
r 0.404972800 _0_ MAC  --- 0 ACK 38 [0 0 0 0] 
s 0.405042800 _0_ MAC  --- 0 RTS 44 [24ce 5 0 0] 
r 0.405395500 _5_ MAC  --- 0 RTS 44 [24ce 5 0 0] 
s 0.405405500 _5_ MAC  --- 0 CTS 38 [2394 0 0 0] 
r 0.405710200 _0_ MAC  --- 0 CTS 38 [2394 0 0 0] 
s 0.405720200 _0_ MAC  --- 15 tcp 1098 [13a 5 0 800] ------- [0:0 5:0 30 5] [9 0] 0 0
r 0.414504900 _5_ MAC  --- 15 tcp 1040 [13a 5 0 800] ------- [0:0 5:0 30 5] [9 0] 1 0
s 0.414514900 _5_ MAC  --- 0 ACK 38 [0 0 0 0] 
r 0.414529900 _5_ RTR  --- 26 ack 40 [0 0 0 0] ------- [5:0 0:0 32 0] [9 0] 0 0
s 0.414529900 _5_ RTR  --- 26 ack 40 [0 0 0 0] ------- [5:0 0:0 30 0] [9 0] 0 0
r 0.414819600 _0_ MAC  --- 0 ACK 38 [0 0 0 0] 
s 0.414909600 _0_ MAC  --- 0 RTS 44 [24ce 5 0 0] 
r 0.415262300 _5_ MAC  --- 0 RTS 44 [24ce 5 0 0] 
s 0.415272300 _5_ MAC  --- 0 CTS 38 [2394 0 0 0] 
r 0.415577000 _0_ MAC  --- 0 CTS 38 [2394 0 0 0] 
s 0.415587000 _0_ MAC  --- 16 tcp 1098 [13a 5 0 800] ------- [0:0 5:0 30 5] [10 0] 0 0
r 0.424371700 _5_ MAC  --- 16 tcp 1040 [13a 5 0 800] ------- [0:0 5:0 30 5] [10 0] 1 0
s 0.424381700 _5_ MAC  --- 0 ACK 38 [0 0 0 0] 
r 0.424396700 _5_ RTR  --- 27 ack 40 [0 0 0 0] ------- [5:0 0:0 32 0] [10 0] 0 0
s 0.424396700 _5_ RTR  --- 27 ack 40 [0 0 0 0] ------- [5:0 0:0 30 0] [10 0] 0 0
r 0.424686400 _0_ MAC  --- 0 ACK 38 [0 0 0 0] 
s 0.424835700 _5_ MAC  --- 0 RTS 44 [58e 0 5 0] 
r 0.425188400 _0_ MAC  --- 0 RTS 44 [58e 0 5 0] 
s 0.425198400 _0_ MAC  --- 0 CTS 38 [454 5 0 0] 
r 0.425503100 _5_ MAC  --- 0 CTS 38 [454 5 0 0] 
s 0.425513100 _5_ MAC  --- 25 ack 98 [13a 0 5 800] ------- [5:0 0:0 30 0] [8 0] 0 0
r 0.426297800 _0_ MAC  --- 25 ack 40 [13a 0 5 800] ------- [5:0 0:0 30 0] [8 0] 1 0
s 0.426307800 _0_ MAC  --- 0 ACK 38 [0 5 0 0] 
r 0.426322800 _0_ RTR  --- 28 tcp 1040 [0 0 0 0] ------- [0:0 5:0 32 0] [17 0] 0 0
r 0.426322800 _0_ RTR  --- 29 tcp 1040 [0 0 0 0] ------- [0:0 5:0 32 0] [18 0] 0 0
s 0.426322800 _0_ RTR  --- 28 tcp 1040 [0 0 0 0] ------- [0:0 5:0 30 5] [17 0] 0 0
s 0.426322800 _0_ RTR  --- 29 tcp 1040 [0 0 0 0] ------- [0:0 5:0 30 5] [18 0] 0 0
r 0.426612500 _5_ MAC  --- 0 ACK 38 [0 5 0 0] 
s 0.427102500 _5_ MAC  --- 0 RTS 44 [58e 0 5 0] 
r 0.427455200 _0_ MAC  --- 0 RTS 44 [58e 0 5 0] 
s 0.427465200 _0_ MAC  --- 0 CTS 38 [454 5 0 0] 
r 0.427769900 _5_ MAC  --- 0 CTS 38 [454 5 0 0] 
s 0.427779900 _5_ MAC  --- 26 ack 98 [13a 0 5 800] ------- [5:0 0:0 30 0] [9 0] 0 0
r 0.428564600 _0_ MAC  --- 26 ack 40 [13a 0 5 800] ------- [5:0 0:0 30 0] [9 0] 1 0
s 0.428574600 _0_ MAC  --- 0 ACK 38 [0 5 0 0] 
r 0.428589600 _0_ RTR  --- 30 tcp 1040 [0 0 0 0] ------- [0:0 5:0 32 0] [19 0] 0 0
r 0.428589600 _0_ RTR  --- 31 tcp 1040 [0 0 0 0] ------- [0:0 5:0 32 0] [20 0] 0 0
s 0.428589600 _0_ RTR  --- 30 tcp 1040 [0 0 0 0] ------- [0:0 5:0 30 5] [19 0] 0 0
s 0.428589600 _0_ RTR  --- 31 tcp 1040 [0 0 0 0] ------- [0:0 5:0 30 5] [20 0] 0 0
r 0.428879300 _5_ MAC  --- 0 ACK 38 [0 5 0 0] 
s 0.428948600 _0_ MAC  --- 0 RTS 44 [24ce 5 0 0] 
r 0.429301300 _5_ MAC  --- 0 RTS 44 [24ce 5 0 0] 
s 0.429311300 _5_ MAC  --- 0 CTS 38 [2394 0 0 0] 
r 0.429616000 _0_ MAC  --- 0 CTS 38 [2394 0 0 0] 
s 0.429626000 _0_ MAC  --- 17 tcp 1098 [13a 5 0 800] ------- [0:0 5:0 30 5] [11 0] 0 0
r 0.438410700 _5_ MAC  --- 17 tcp 1040 [13a 5 0 800] ------- [0:0 5:0 30 5] [11 0] 1 0
s 0.438420700 _5_ MAC  --- 0 ACK 38 [0 0 0 0] 
r 0.438435700 _5_ RTR  --- 32 ack 40 [0 0 0 0] ------- [5:0 0:0 32 0] [11 0] 0 0
s 0.438435700 _5_ RTR  --- 32 ack 40 [0 0 0 0] ------- [5:0 0:0 30 0] [11 0] 0 0
r 0.438725400 _0_ MAC  --- 0 ACK 38 [0 0 0 0] 
s 0.438894700 _5_ MAC  --- 0 RTS 44 [58e 0 5 0] 
r 0.439247400 _0_ MAC  --- 0 RTS 44 [58e 0 5 0] 
s 0.439257400 _0_ MAC  --- 0 CTS 38 [454 5 0 0] 
r 0.439562100 _5_ MAC  --- 0 CTS 38 [454 5 0 0] 
s 0.439572100 _5_ MAC  --- 27 ack 98 [13a 0 5 800] ------- [5:0 0:0 30 0] [10 0] 0 0
r 0.440356800 _0_ MAC  --- 27 ack 40 [13a 0 5 800] ------- [5:0 0:0 30 0] [10 0] 1 0
s 0.440366800 _0_ MAC  --- 0 ACK 38 [0 5 0 0] 
r 0.440381800 _0_ RTR  --- 33 tcp 1040 [0 0 0 0] ------- [0:0 5:0 32 0] [21 0] 0 0
r 0.440381800 _0_ RTR  --- 34 tcp 1040 [0 0 0 0] ------- [0:0 5:0 32 0] [22 0] 0 0
s 0.440381800 _0_ RTR  --- 33 tcp 1040 [0 0 0 0] ------- [0:0 5:0 30 5] [21 0] 0 0
s 0.440381800 _0_ RTR  --- 34 tcp 1040 [0 0 0 0] ------- [0:0 5:0 30 5] [22 0] 0 0
r 0.440671500 _5_ MAC  --- 0 ACK 38 [0 5 0 0] 
s 0.440920800 _0_ MAC  --- 0 RTS 44 [24ce 5 0 0] 
r 0.441273500 _5_ MAC  --- 0 RTS 44 [24ce 5 0 0] 
s 0.441283500 _5_ MAC  --- 0 CTS 38 [2394 0 0 0] 
r 0.441588200 _0_ MAC  --- 0 CTS 38 [2394 0 0 0] 
s 0.441598200 _0_ MAC  --- 18 tcp 1098 [13a 5 0 800] ------- [0:0 5:0 30 5] [12 0] 0 0
r 0.450382900 _5_ MAC  --- 18 tcp 1040 [13a 5 0 800] ------- [0:0 5:0 30 5] [12 0] 1 0
s 0.450392900 _5_ MAC  --- 0 ACK 38 [0 0 0 0] 
r 0.450407900 _5_ RTR  --- 35 ack 40 [0 0 0 0] ------- [5:0 0:0 32 0] [12 0] 0 0
s 0.450407900 _5_ RTR  --- 35 ack 40 [0 0 0 0] ------- [5:0 0:0 30 0] [12 0] 0 0
r 0.450697600 _0_ MAC  --- 0 ACK 38 [0 0 0 0] 
s 0.450946900 _5_ MAC  --- 0 RTS 44 [58e 0 5 0] 
r 0.451299600 _0_ MAC  --- 0 RTS 44 [58e 0 5 0] 
s 0.451309600 _0_ MAC  --- 0 CTS 38 [454 5 0 0] 
r 0.451614300 _5_ MAC  --- 0 CTS 38 [454 5 0 0] 
s 0.451624300 _5_ MAC  --- 32 ack 98 [13a 0 5 800] ------- [5:0 0:0 30 0] [11 0] 0 0
r 0.452409000 _0_ MAC  --- 32 ack 40 [13a 0 5 800] ------- [5:0 0:0 30 0] [11 0] 1 0
s 0.452419000 _0_ MAC  --- 0 ACK 38 [0 5 0 0] 
r 0.452434000 _0_ RTR  --- 36 tcp 1040 [0 0 0 0] ------- [0:0 5:0 32 0] [23 0] 0 0
r 0.452434000 _0_ RTR  --- 37 tcp 1040 [0 0 0 0] ------- [0:0 5:0 32 0] [24 0] 0 0
s 0.452434000 _0_ RTR  --- 36 tcp 1040 [0 0 0 0] ------- [0:0 5:0 30 5] [23 0] 0 0
s 0.452434000 _0_ RTR  --- 37 tcp 1040 [0 0 0 0] ------- [0:0 5:0 30 5] [24 0] 0 0
r 0.452723700 _5_ MAC  --- 0 ACK 38 [0 5 0 0] 
s 0.452873700 _5_ MAC  --- 0 RTS 44 [58e 0 5 0] 
r 0.453226400 _0_ MAC  --- 0 RTS 44 [58e 0 5 0] 
s 0.453236400 _0_ MAC  --- 0 CTS 38 [454 5 0 0] 
r 0.453541100 _5_ MAC  --- 0 CTS 38 [454 5 0 0] 
s 0.453551100 _5_ MAC  --- 35 ack 98 [13a 0 5 800] ------- [5:0 0:0 30 0] [12 0] 0 0
r 0.454335800 _0_ MAC  --- 35 ack 40 [13a 0 5 800] ------- [5:0 0:0 30 0] [12 0] 1 0
s 0.454345800 _0_ MAC  --- 0 ACK 38 [0 5 0 0] 
r 0.454360800 _0_ RTR  --- 38 tcp 1040 [0 0 0 0] ------- [0:0 5:0 32 0] [25 0] 0 0
r 0.454360800 _0_ RTR  --- 39 tcp 1040 [0 0 0 0] ------- [0:0 5:0 32 0] [26 0] 0 0
s 0.454360800 _0_ RTR  --- 38 tcp 1040 [0 0 0 0] ------- [0:0 5:0 30 5] [25 0] 0 0
s 0.454360800 _0_ RTR  --- 39 tcp 1040 [0 0 0 0] ------- [0:0 5:0 30 5] [26 0] 0 0
r 0.454650500 _5_ MAC  --- 0 ACK 38 [0 5 0 0] 
s 0.454739800 _0_ MAC  --- 0 RTS 44 [24ce 5 0 0] 
r 0.455092500 _5_ MAC  --- 0 RTS 44 [24ce 5 0 0] 
s 0.455102500 _5_ MAC  --- 0 CTS 38 [2394 0 0 0] 
r 0.455407200 _0_ MAC  --- 0 CTS 38 [2394 0 0 0] 
s 0.455417200 _0_ MAC  --- 20 tcp 1098 [13a 5 0 800] ------- [0:0 5:0 30 5] [13 0] 0 0
r 0.464201900 _5_ MAC  --- 20 tcp 1040 [13a 5 0 800] ------- [0:0 5:0 30 5] [13 0] 1 0
s 0.464211900 _5_ MAC  --- 0 ACK 38 [0 0 0 0] 
r 0.464226900 _5_ RTR  --- 40 ack 40 [0 0 0 0] ------- [5:0 0:0 32 0] [13 0] 0 0
s 0.464226900 _5_ RTR  --- 40 ack 40 [0 0 0 0] ------- [5:0 0:0 30 0] [13 0] 0 0
r 0.464516600 _0_ MAC  --- 0 ACK 38 [0 0 0 0] 
s 0.464626600 _0_ MAC  --- 0 RTS 44 [24ce 5 0 0] 
r 0.464979300 _5_ MAC  --- 0 RTS 44 [24ce 5 0 0] 
s 0.464989300 _5_ MAC  --- 0 CTS 38 [2394 0 0 0] 
r 0.465294000 _0_ MAC  --- 0 CTS 38 [2394 0 0 0] 
s 0.465304000 _0_ MAC  --- 21 tcp 1098 [13a 5 0 800] ------- [0:0 5:0 30 5] [14 0] 0 0
r 0.474088700 _5_ MAC  --- 21 tcp 1040 [13a 5 0 800] ------- [0:0 5:0 30 5] [14 0] 1 0
s 0.474098700 _5_ MAC  --- 0 ACK 38 [0 0 0 0] 
r 0.474113700 _5_ RTR  --- 41 ack 40 [0 0 0 0] ------- [5:0 0:0 32 0] [14 0] 0 0
s 0.474113700 _5_ RTR  --- 41 ack 40 [0 0 0 0] ------- [5:0 0:0 30 0] [14 0] 0 0
r 0.474403400 _0_ MAC  --- 0 ACK 38 [0 0 0 0] 
s 0.474553400 _0_ MAC  --- 0 RTS 44 [24ce 5 0 0] 
r 0.474906100 _5_ MAC  --- 0 RTS 44 [24ce 5 0 0] 
s 0.474916100 _5_ MAC  --- 0 CTS 38 [2394 0 0 0] 
r 0.475220800 _0_ MAC  --- 0 CTS 38 [2394 0 0 0] 
s 0.475230800 _0_ MAC  --- 23 tcp 1098 [13a 5 0 800] ------- [0:0 5:0 30 5] [15 0] 0 0
r 0.484015500 _5_ MAC  --- 23 tcp 1040 [13a 5 0 800] ------- [0:0 5:0 30 5] [15 0] 1 0
s 0.484025500 _5_ MAC  --- 0 ACK 38 [0 0 0 0] 
r 0.484040500 _5_ RTR  --- 42 ack 40 [0 0 0 0] ------- [5:0 0:0 32 0] [15 0] 0 0
s 0.484040500 _5_ RTR  --- 42 ack 40 [0 0 0 0] ------- [5:0 0:0 30 0] [15 0] 0 0
r 0.484330200 _0_ MAC  --- 0 ACK 38 [0 0 0 0] 
s 0.484620200 _0_ MAC  --- 0 RTS 44 [24ce 5 0 0] 
r 0.484972900 _5_ MAC  --- 0 RTS 44 [24ce 5 0 0] 
s 0.484982900 _5_ MAC  --- 0 CTS 38 [2394 0 0 0] 
r 0.485287600 _0_ MAC  --- 0 CTS 38 [2394 0 0 0] 
s 0.485297600 _0_ MAC  --- 24 tcp 1098 [13a 5 0 800] ------- [0:0 5:0 30 5] [16 0] 0 0
r 0.494082300 _5_ MAC  --- 24 tcp 1040 [13a 5 0 800] ------- [0:0 5:0 30 5] [16 0] 1 0
s 0.494092300 _5_ MAC  --- 0 ACK 38 [0 0 0 0] 
r 0.494107300 _5_ RTR  --- 43 ack 40 [0 0 0 0] ------- [5:0 0:0 32 0] [16 0] 0 0
s 0.494107300 _5_ RTR  --- 43 ack 40 [0 0 0 0] ------- [5:0 0:0 30 0] [16 0] 0 0
r 0.494397000 _0_ MAC  --- 0 ACK 38 [0 0 0 0] 
s 0.494466300 _5_ MAC  --- 0 RTS 44 [58e 0 5 0] 
r 0.494819000 _0_ MAC  --- 0 RTS 44 [58e 0 5 0] 
s 0.494829000 _0_ MAC  --- 0 CTS 38 [454 5 0 0] 
r 0.495133700 _5_ MAC  --- 0 CTS 38 [454 5 0 0] 
s 0.495143700 _5_ MAC  --- 40 ack 98 [13a 0 5 800] ------- [5:0 0:0 30 0] [13 0] 0 0
r 0.495928400 _0_ MAC  --- 40 ack 40 [13a 0 5 800] ------- [5:0 0:0 30 0] [13 0] 1 0
s 0.495938400 _0_ MAC  --- 0 ACK 38 [0 5 0 0] 
r 0.495953400 _0_ RTR  --- 44 tcp 1040 [0 0 0 0] ------- [0:0 5:0 32 0] [27 0] 0 0
r 0.495953400 _0_ RTR  --- 45 tcp 1040 [0 0 0 0] ------- [0:0 5:0 32 0] [28 0] 0 0
s 0.495953400 _0_ RTR  --- 44 tcp 1040 [0 0 0 0] ------- [0:0 5:0 30 5] [27 0] 0 0
s 0.495953400 _0_ RTR  --- 45 tcp 1040 [0 0 0 0] ------- [0:0 5:0 30 5] [28 0] 0 0
r 0.496243100 _5_ MAC  --- 0 ACK 38 [0 5 0 0] 
s 0.496453100 _5_ MAC  --- 0 RTS 44 [58e 0 5 0] 
r 0.496805800 _0_ MAC  --- 0 RTS 44 [58e 0 5 0] 
s 0.496815800 _0_ MAC  --- 0 CTS 38 [454 5 0 0] 
r 0.497120500 _5_ MAC  --- 0 CTS 38 [454 5 0 0] 
s 0.497130500 _5_ MAC  --- 41 ack 98 [13a 0 5 800] ------- [5:0 0:0 30 0] [14 0] 0 0
r 0.497915200 _0_ MAC  --- 41 ack 40 [13a 0 5 800] ------- [5:0 0:0 30 0] [14 0] 1 0
s 0.497925200 _0_ MAC  --- 0 ACK 38 [0 5 0 0] 
r 0.497940200 _0_ RTR  --- 46 tcp 1040 [0 0 0 0] ------- [0:0 5:0 32 0] [29 0] 0 0
r 0.497940200 _0_ RTR  --- 47 tcp 1040 [0 0 0 0] ------- [0:0 5:0 32 0] [30 0] 0 0
s 0.497940200 _0_ RTR  --- 46 tcp 1040 [0 0 0 0] ------- [0:0 5:0 30 5] [29 0] 0 0
s 0.497940200 _0_ RTR  --- 47 tcp 1040 [0 0 0 0] ------- [0:0 5:0 30 5] [30 0] 0 0
r 0.498229900 _5_ MAC  --- 0 ACK 38 [0 5 0 0] 
s 0.498419200 _0_ MAC  --- 0 RTS 44 [24ce 5 0 0] 
r 0.498771900 _5_ MAC  --- 0 RTS 44 [24ce 5 0 0] 
s 0.498781900 _5_ MAC  --- 0 CTS 38 [2394 0 0 0] 
r 0.499086600 _0_ MAC  --- 0 CTS 38 [2394 0 0 0] 
s 0.499096600 _0_ MAC  --- 28 tcp 1098 [13a 5 0 800] ------- [0:0 5:0 30 5] [17 0] 0 0
r 0.507881300 _5_ MAC  --- 28 tcp 1040 [13a 5 0 800] ------- [0:0 5:0 30 5] [17 0] 1 0
s 0.507891300 _5_ MAC  --- 0 ACK 38 [0 0 0 0] 
r 0.507906300 _5_ RTR  --- 48 ack 40 [0 0 0 0] ------- [5:0 0:0 32 0] [17 0] 0 0
s 0.507906300 _5_ RTR  --- 48 ack 40 [0 0 0 0] ------- [5:0 0:0 30 0] [17 0] 0 0
r 0.508196000 _0_ MAC  --- 0 ACK 38 [0 0 0 0] 
s 0.508386000 _0_ MAC  --- 0 RTS 44 [24ce 5 0 0] 
r 0.508738700 _5_ MAC  --- 0 RTS 44 [24ce 5 0 0] 
s 0.508748700 _5_ MAC  --- 0 CTS 38 [2394 0 0 0] 
r 0.509053400 _0_ MAC  --- 0 CTS 38 [2394 0 0 0] 
s 0.509063400 _0_ MAC  --- 29 tcp 1098 [13a 5 0 800] ------- [0:0 5:0 30 5] [18 0] 0 0
r 0.517848100 _5_ MAC  --- 29 tcp 1040 [13a 5 0 800] ------- [0:0 5:0 30 5] [18 0] 1 0
s 0.517858100 _5_ MAC  --- 0 ACK 38 [0 0 0 0] 
r 0.517873100 _5_ RTR  --- 49 ack 40 [0 0 0 0] ------- [5:0 0:0 32 0] [18 0] 0 0
s 0.517873100 _5_ RTR  --- 49 ack 40 [0 0 0 0] ------- [5:0 0:0 30 0] [18 0] 0 0
r 0.518162800 _0_ MAC  --- 0 ACK 38 [0 0 0 0] 
s 0.518412100 _5_ MAC  --- 0 RTS 44 [58e 0 5 0] 
r 0.518764800 _0_ MAC  --- 0 RTS 44 [58e 0 5 0] 
s 0.518774800 _0_ MAC  --- 0 CTS 38 [454 5 0 0] 
r 0.519079500 _5_ MAC  --- 0 CTS 38 [454 5 0 0] 
s 0.519089500 _5_ MAC  --- 42 ack 98 [13a 0 5 800] ------- [5:0 0:0 30 0] [15 0] 0 0
r 0.519874200 _0_ MAC  --- 42 ack 40 [13a 0 5 800] ------- [5:0 0:0 30 0] [15 0] 1 0
s 0.519884200 _0_ MAC  --- 0 ACK 38 [0 5 0 0] 
r 0.519899200 _0_ RTR  --- 50 tcp 1040 [0 0 0 0] ------- [0:0 5:0 32 0] [31 0] 0 0
r 0.519899200 _0_ RTR  --- 51 tcp 1040 [0 0 0 0] ------- [0:0 5:0 32 0] [32 0] 0 0
s 0.519899200 _0_ RTR  --- 50 tcp 1040 [0 0 0 0] ------- [0:0 5:0 30 5] [31 0] 0 0
s 0.519899200 _0_ RTR  --- 51 tcp 1040 [0 0 0 0] ------- [0:0 5:0 30 5] [32 0] 0 0
r 0.520188900 _5_ MAC  --- 0 ACK 38 [0 5 0 0] 
s 0.520598900 _5_ MAC  --- 0 RTS 44 [58e 0 5 0] 
r 0.520951600 _0_ MAC  --- 0 RTS 44 [58e 0 5 0] 
s 0.520961600 _0_ MAC  --- 0 CTS 38 [454 5 0 0] 
r 0.521266300 _5_ MAC  --- 0 CTS 38 [454 5 0 0] 
s 0.521276300 _5_ MAC  --- 43 ack 98 [13a 0 5 800] ------- [5:0 0:0 30 0] [16 0] 0 0
r 0.522061000 _0_ MAC  --- 43 ack 40 [13a 0 5 800] ------- [5:0 0:0 30 0] [16 0] 1 0
s 0.522071000 _0_ MAC  --- 0 ACK 38 [0 5 0 0] 
r 0.522086000 _0_ RTR  --- 52 tcp 1040 [0 0 0 0] ------- [0:0 5:0 32 0] [33 0] 0 0
r 0.522086000 _0_ RTR  --- 53 tcp 1040 [0 0 0 0] ------- [0:0 5:0 32 0] [34 0] 0 0
s 0.522086000 _0_ RTR  --- 52 tcp 1040 [0 0 0 0] ------- [0:0 5:0 30 5] [33 0] 0 0
s 0.522086000 _0_ RTR  --- 53 tcp 1040 [0 0 0 0] ------- [0:0 5:0 30 5] [34 0] 0 0
r 0.522375700 _5_ MAC  --- 0 ACK 38 [0 5 0 0] 
s 0.522445000 _0_ MAC  --- 0 RTS 44 [24ce 5 0 0] 
r 0.522797700 _5_ MAC  --- 0 RTS 44 [24ce 5 0 0] 
s 0.522807700 _5_ MAC  --- 0 CTS 38 [2394 0 0 0] 
r 0.523112400 _0_ MAC  --- 0 CTS 38 [2394 0 0 0] 
s 0.523122400 _0_ MAC  --- 30 tcp 1098 [13a 5 0 800] ------- [0:0 5:0 30 5] [19 0] 0 0
r 0.531907100 _5_ MAC  --- 30 tcp 1040 [13a 5 0 800] ------- [0:0 5:0 30 5] [19 0] 1 0
s 0.531917100 _5_ MAC  --- 0 ACK 38 [0 0 0 0] 
r 0.531932100 _5_ RTR  --- 54 ack 40 [0 0 0 0] ------- [5:0 0:0 32 0] [19 0] 0 0
s 0.531932100 _5_ RTR  --- 54 ack 40 [0 0 0 0] ------- [5:0 0:0 30 0] [19 0] 0 0
r 0.532221800 _0_ MAC  --- 0 ACK 38 [0 0 0 0] 
s 0.532311800 _0_ MAC  --- 0 RTS 44 [24ce 5 0 0] 
r 0.532664500 _5_ MAC  --- 0 RTS 44 [24ce 5 0 0] 
s 0.532674500 _5_ MAC  --- 0 CTS 38 [2394 0 0 0] 
r 0.532979200 _0_ MAC  --- 0 CTS 38 [2394 0 0 0] 
s 0.532989200 _0_ MAC  --- 31 tcp 1098 [13a 5 0 800] ------- [0:0 5:0 30 5] [20 0] 0 0
r 0.541773900 _5_ MAC  --- 31 tcp 1040 [13a 5 0 800] ------- [0:0 5:0 30 5] [20 0] 1 0
s 0.541783900 _5_ MAC  --- 0 ACK 38 [0 0 0 0] 
r 0.541798900 _5_ RTR  --- 55 ack 40 [0 0 0 0] ------- [5:0 0:0 32 0] [20 0] 0 0
s 0.541798900 _5_ RTR  --- 55 ack 40 [0 0 0 0] ------- [5:0 0:0 30 0] [20 0] 0 0
r 0.542088600 _0_ MAC  --- 0 ACK 38 [0 0 0 0] 
s 0.542198600 _0_ MAC  --- 0 RTS 44 [24ce 5 0 0] 
r 0.542551300 _5_ MAC  --- 0 RTS 44 [24ce 5 0 0] 
s 0.542561300 _5_ MAC  --- 0 CTS 38 [2394 0 0 0] 
r 0.542866000 _0_ MAC  --- 0 CTS 38 [2394 0 0 0] 
s 0.542876000 _0_ MAC  --- 33 tcp 1098 [13a 5 0 800] ------- [0:0 5:0 30 5] [21 0] 0 0
r 0.551660700 _5_ MAC  --- 33 tcp 1040 [13a 5 0 800] ------- [0:0 5:0 30 5] [21 0] 1 0
s 0.551670700 _5_ MAC  --- 0 ACK 38 [0 0 0 0] 
r 0.551685700 _5_ RTR  --- 56 ack 40 [0 0 0 0] ------- [5:0 0:0 32 0] [21 0] 0 0
s 0.551685700 _5_ RTR  --- 56 ack 40 [0 0 0 0] ------- [5:0 0:0 30 0] [21 0] 0 0
r 0.551975400 _0_ MAC  --- 0 ACK 38 [0 0 0 0] 
s 0.552124700 _5_ MAC  --- 0 RTS 44 [58e 0 5 0] 
r 0.552477400 _0_ MAC  --- 0 RTS 44 [58e 0 5 0] 
s 0.552487400 _0_ MAC  --- 0 CTS 38 [454 5 0 0] 
r 0.552792100 _5_ MAC  --- 0 CTS 38 [454 5 0 0] 
s 0.552802100 _5_ MAC  --- 48 ack 98 [13a 0 5 800] ------- [5:0 0:0 30 0] [17 0] 0 0
r 0.553586800 _0_ MAC  --- 48 ack 40 [13a 0 5 800] ------- [5:0 0:0 30 0] [17 0] 1 0
s 0.553596800 _0_ MAC  --- 0 ACK 38 [0 5 0 0] 