M 0.00000 0 (100.00, 300.00, 0.00), (100.00, 300.00), 2000.00
M 0.00000 1 (200.00, 300.00, 0.00), (200.00, 300.00), 2000.00
M 0.00000 2 (300.00, 300.00, 0.00), (300.00, 300.00), 2000.00
M 0.00000 3 (400.00, 300.00, 0.00), (400.00, 300.00), 2000.00
M 0.00000 4 (500.00, 300.00, 0.00), (500.00, 300.00), 2000.00
M 0.00000 6 (600.00, 300.00, 0.00), (600.00, 300.00), 2000.00
M 0.00000 7 (700.00, 300.00, 0.00), (700.00, 300.00), 2000.00
M 0.00000 5 (100.00, 200.00, 0.00), (100.00, 200.00), 2000.00
M 0.00000 5 (100.00, 200.00, 0.00), (700.00, 200.00), 60.00
r 0.000000000 _0_ RTR  --- 0 tcp 40 [0 0 0 0] ------- [0:0 5:0 32 0] [0 0] 0 0
s 0.000000000 _0_ RTR  --- 0 AODV 48 [0 0 0 0] ------- [0:255 -1:255 30 0] [0x2 1 1 [5 0] [0 4]] (REQUEST)
s 0.000575000 _0_ MAC  --- 0 AODV 106 [0 ffffffff 0 800] ------- [0:255 -1:255 30 0] [0x2 1 1 [5 0] [0 4]] (REQUEST)
r 0.001423333 _1_ MAC  --- 0 AODV 48 [0 ffffffff 0 800] ------- [0:255 -1:255 30 0] [0x2 1 1 [5 0] [0 4]] (REQUEST)
r 0.001423333 _5_ MAC  --- 0 AODV 48 [0 ffffffff 0 800] ------- [0:255 -1:255 30 0] [0x2 1 1 [5 0] [0 4]] (REQUEST)
r 0.001423667 _2_ MAC  --- 0 AODV 48 [0 ffffffff 0 800] ------- [0:255 -1:255 30 0] [0x2 1 1 [5 0] [0 4]] (REQUEST)
r 0.001448333 _1_ RTR  --- 0 AODV 48 [0 ffffffff 0 800] ------- [0:255 -1:255 30 0] [0x2 1 1 [5 0] [0 4]] (REQUEST)
r 0.001448333 _5_ RTR  --- 0 AODV 48 [0 ffffffff 0 800] ------- [0:255 -1:255 30 0] [0x2 1 1 [5 0] [0 4]] (REQUEST)
s 0.001448333 _5_ RTR  --- 0 AODV 44 [0 0 0 0] ------- [5:255 0:255 30 0] [0x4 1 [5 4] 10.000000] (REPLY)
r 0.001448667 _2_ RTR  --- 0 AODV 48 [0 ffffffff 0 800] ------- [0:255 -1:255 30 0] [0x2 1 1 [5 0] [0 4]] (REQUEST)
s 0.002103333 _5_ MAC  --- 0 ARP 86 [0 ffffffff 5 806] ------- [REQUEST 5/5 0/0]
s 0.002330487 _2_ RTR  --- 0 AODV 48 [0 ffffffff 0 800] ------- [2:255 -1:255 29 0] [0x2 2 1 [5 0] [0 4]] (REQUEST)
r 0.002791667 _0_ MAC  --- 0 ARP 28 [0 ffffffff 5 806] ------- [REQUEST 5/5 0/0]
r 0.002791804 _1_ MAC  --- 0 ARP 28 [0 ffffffff 5 806] ------- [REQUEST 5/5 0/0]
r 0.002792078 _2_ MAC  --- 0 ARP 28 [0 ffffffff 5 806] ------- [REQUEST 5/5 0/0]
s 0.002862078 _2_ MAC  --- 0 AODV 106 [0 ffffffff 2 800] ------- [2:255 -1:255 29 0] [0x2 2 1 [5 0] [0 4]] (REQUEST)
r 0.003710412 _1_ MAC  --- 0 AODV 48 [0 ffffffff 2 800] ------- [2:255 -1:255 29 0] [0x2 2 1 [5 0] [0 4]] (REQUEST)
r 0.003710412 _3_ MAC  --- 0 AODV 48 [0 ffffffff 2 800] ------- [2:255 -1:255 29 0] [0x2 2 1 [5 0] [0 4]] (REQUEST)
r 0.003710745 _0_ MAC  --- 0 AODV 48 [0 ffffffff 2 800] ------- [2:255 -1:255 29 0] [0x2 2 1 [5 0] [0 4]] (REQUEST)
r 0.003710745 _4_ MAC  --- 0 AODV 48 [0 ffffffff 2 800] ------- [2:255 -1:255 29 0] [0x2 2 1 [5 0] [0 4]] (REQUEST)
r 0.003710823 _5_ MAC  --- 0 AODV 48 [0 ffffffff 2 800] ------- [2:255 -1:255 29 0] [0x2 2 1 [5 0] [0 4]] (REQUEST)
r 0.003735412 _1_ RTR  --- 0 AODV 48 [0 ffffffff 2 800] ------- [2:255 -1:255 29 0] [0x2 2 1 [5 0] [0 4]] (REQUEST)
r 0.003735412 _3_ RTR  --- 0 AODV 48 [0 ffffffff 2 800] ------- [2:255 -1:255 29 0] [0x2 2 1 [5 0] [0 4]] (REQUEST)
r 0.003735745 _0_ RTR  --- 0 AODV 48 [0 ffffffff 2 800] ------- [2:255 -1:255 29 0] [0x2 2 1 [5 0] [0 4]] (REQUEST)
r 0.003735745 _4_ RTR  --- 0 AODV 48 [0 ffffffff 2 800] ------- [2:255 -1:255 29 0] [0x2 2 1 [5 0] [0 4]] (REQUEST)
r 0.003735823 _5_ RTR  --- 0 AODV 48 [0 ffffffff 2 800] ------- [2:255 -1:255 29 0] [0x2 2 1 [5 0] [0 4]] (REQUEST)
s 0.004000745 _0_ MAC  --- 0 RTS 44 [52e 5 0 0] 
r 0.004353078 _5_ MAC  --- 0 RTS 44 [52e 5 0 0] 
s 0.004363078 _5_ MAC  --- 0 CTS 38 [3f4 0 0 0] 
r 0.004667412 _0_ MAC  --- 0 CTS 38 [3f4 0 0 0] 
s 0.004677412 _0_ MAC  --- 0 ARP 86 [13a 5 0 806] ------- [REPLY 0/0 5/5]
r 0.005365745 _5_ MAC  --- 0 ARP 28 [13a 5 0 806] ------- [REPLY 0/0 5/5]
s 0.005370946 _3_ RTR  --- 0 AODV 48 [0 ffffffff 2 800] ------- [3:255 -1:255 28 0] [0x2 3 1 [5 0] [0 4]] (REQUEST)
s 0.005375745 _5_ MAC  --- 0 ACK 38 [0 0 0 0] 
r 0.005680078 _0_ MAC  --- 0 ACK 38 [0 0 0 0] 
s 0.006309745 _5_ MAC  --- 0 RTS 44 [5ae 0 5 0] 
r 0.006662078 _0_ MAC  --- 0 RTS 44 [5ae 0 5 0] 
s 0.006672078 _0_ MAC  --- 0 CTS 38 [474 5 0 0] 
r 0.006976412 _5_ MAC  --- 0 CTS 38 [474 5 0 0] 
s 0.006986412 _5_ MAC  --- 0 AODV 102 [13a 0 5 800] ------- [5:255 0:255 30 0] [0x4 1 [5 4] 10.000000] (REPLY)
s 0.007616657 _1_ RTR  --- 0 AODV 48 [0 ffffffff 0 800] ------- [1:255 -1:255 29 0] [0x2 2 1 [5 0] [0 4]] (REQUEST)
r 0.007802745 _0_ MAC  --- 0 AODV 44 [13a 0 5 800] ------- [5:255 0:255 30 0] [0x4 1 [5 4] 10.000000] (REPLY)
s 0.007812745 _0_ MAC  --- 0 ACK 38 [0 5 0 0] 
r 0.007827745 _0_ RTR  --- 0 AODV 44 [13a 0 5 800] ------- [5:255 0:255 30 0] [0x4 1 [5 4] 10.000000] (REPLY)
s 0.007827745 _0_ RTR  --- 0 tcp 40 [0 0 0 0] ------- [0:0 5:0 30 5] [0 0] 0 0
r 0.008117078 _5_ MAC  --- 0 ACK 38 [0 5 0 0] 
s 0.008571745 _3_ MAC  --- 0 AODV 106 [0 ffffffff 3 800] ------- [3:255 -1:255 28 0] [0x2 3 1 [5 0] [0 4]] (REQUEST)
r 0.009420078 _2_ MAC  --- 0 AODV 48 [0 ffffffff 3 800] ------- [3:255 -1:255 28 0] [0x2 3 1 [5 0] [0 4]] (REQUEST)
r 0.009420078 _4_ MAC  --- 0 AODV 48 [0 ffffffff 3 800] ------- [3:255 -1:255 28 0] [0x2 3 1 [5 0] [0 4]] (REQUEST)
r 0.009420412 _1_ MAC  --- 0 AODV 48 [0 ffffffff 3 800] ------- [3:255 -1:255 28 0] [0x2 3 1 [5 0] [0 4]] (REQUEST)
r 0.009420412 _6_ MAC  --- 0 AODV 48 [0 ffffffff 3 800] ------- [3:255 -1:255 28 0] [0x2 3 1 [5 0] [0 4]] (REQUEST)
r 0.009445078 _2_ RTR  --- 0 AODV 48 [0 ffffffff 3 800] ------- [3:255 -1:255 28 0] [0x2 3 1 [5 0] [0 4]] (REQUEST)
r 0.009445078 _4_ RTR  --- 0 AODV 48 [0 ffffffff 3 800] ------- [3:255 -1:255 28 0] [0x2 3 1 [5 0] [0 4]] (REQUEST)
r 0.009445412 _1_ RTR  --- 0 AODV 48 [0 ffffffff 3 800] ------- [3:255 -1:255 28 0] [0x2 3 1 [5 0] [0 4]] (REQUEST)
r 0.009445412 _6_ RTR  --- 0 AODV 48 [0 ffffffff 3 800] ------- [3:255 -1:255 28 0] [0x2 3 1 [5 0] [0 4]] (REQUEST)
s 0.009610412 _1_ MAC  --- 0 AODV 106 [0 ffffffff 1 800] ------- [1:255 -1:255 29 0] [0x2 2 1 [5 0] [0 4]] (REQUEST)
r 0.010458745 _0_ MAC  --- 0 AODV 48 [0 ffffffff 1 800] ------- [1:255 -1:255 29 0] [0x2 2 1 [5 0] [0 4]] (REQUEST)
r 0.010458745 _2_ MAC  --- 0 AODV 48 [0 ffffffff 1 800] ------- [1:255 -1:255 29 0] [0x2 2 1 [5 0] [0 4]] (REQUEST)
r 0.010458882 _5_ MAC  --- 0 AODV 48 [0 ffffffff 1 800] ------- [1:255 -1:255 29 0] [0x2 2 1 [5 0] [0 4]] (REQUEST)
r 0.010459078 _3_ MAC  --- 0 AODV 48 [0 ffffffff 1 800] ------- [1:255 -1:255 29 0] [0x2 2 1 [5 0] [0 4]] (REQUEST)
r 0.010483745 _0_ RTR  --- 0 AODV 48 [0 ffffffff 1 800] ------- [1:255 -1:255 29 0] [0x2 2 1 [5 0] [0 4]] (REQUEST)
r 0.010483745 _2_ RTR  --- 0 AODV 48 [0 ffffffff 1 800] ------- [1:255 -1:255 29 0] [0x2 2 1 [5 0] [0 4]] (REQUEST)
r 0.010483882 _5_ RTR  --- 0 AODV 48 [0 ffffffff 1 800] ------- [1:255 -1:255 29 0] [0x2 2 1 [5 0] [0 4]] (REQUEST)
r 0.010484078 _3_ RTR  --- 0 AODV 48 [0 ffffffff 1 800] ------- [1:255 -1:255 29 0] [0x2 2 1 [5 0] [0 4]] (REQUEST)
s 0.010548745 _0_ MAC  --- 0 RTS 44 [58e 5 0 0] 
r 0.010901078 _5_ MAC  --- 0 RTS 44 [58e 5 0 0] 
s 0.010911078 _5_ MAC  --- 0 CTS 38 [454 0 0 0] 
r 0.011215412 _0_ MAC  --- 0 CTS 38 [454 0 0 0] 
s 0.011225412 _0_ MAC  --- 0 tcp 98 [13a 5 0 800] ------- [0:0 5:0 30 5] [0 0] 0 0
r 0.012009745 _5_ MAC  --- 0 tcp 40 [13a 5 0 800] ------- [0:0 5:0 30 5] [0 0] 1 0
s 0.012019745 _5_ MAC  --- 0 ACK 38 [0 0 0 0] 
r 0.012034745 _5_ RTR  --- 1 ack 40 [0 0 0 0] ------- [5:0 0:0 32 0] [0 0] 0 0
s 0.012034745 _5_ RTR  --- 1 ack 40 [0 0 0 0] ------- [5:0 0:0 30 0] [0 0] 0 0
s 0.012278393 _4_ RTR  --- 0 AODV 48 [0 ffffffff 2 800] ------- [4:255 -1:255 28 0] [0x2 3 1 [5 0] [0 4]] (REQUEST)
r 0.012324078 _0_ MAC  --- 0 ACK 38 [0 0 0 0] 
s 0.012433745 _5_ MAC  --- 0 RTS 44 [58e 0 5 0] 
r 0.012786078 _0_ MAC  --- 0 RTS 44 [58e 0 5 0] 
s 0.012796078 _0_ MAC  --- 0 CTS 38 [454 5 0 0] 
r 0.013100412 _5_ MAC  --- 0 CTS 38 [454 5 0 0] 
s 0.013110412 _5_ MAC  --- 1 ack 98 [13a 0 5 800] ------- [5:0 0:0 30 0] [0 0] 0 0
r 0.013894745 _0_ MAC  --- 1 ack 40 [13a 0 5 800] ------- [5:0 0:0 30 0] [0 0] 1 0
s 0.013904745 _0_ MAC  --- 0 ACK 38 [0 5 0 0] 
r 0.013919745 _0_ RTR  --- 2 tcp 1040 [0 0 0 0] ------- [0:0 5:0 32 0] [1 0] 0 0
r 0.013919745 _0_ RTR  --- 3 tcp 1040 [0 0 0 0] ------- [0:0 5:0 32 0] [2 0] 0 0
s 0.013919745 _0_ RTR  --- 2 tcp 1040 [0 0 0 0] ------- [0:0 5:0 30 5] [1 0] 0 0
s 0.013919745 _0_ RTR  --- 3 tcp 1040 [0 0 0 0] ------- [0:0 5:0 30 5] [2 0] 0 0
r 0.014209078 _5_ MAC  --- 0 ACK 38 [0 5 0 0] 
s 0.014438745 _0_ MAC  --- 0 RTS 44 [24ce 5 0 0] 
r 0.014791078 _5_ MAC  --- 0 RTS 44 [24ce 5 0 0] 
s 0.014801078 _5_ MAC  --- 0 CTS 38 [2394 0 0 0] 
r 0.015105412 _0_ MAC  --- 0 CTS 38 [2394 0 0 0] 
s 0.015115412 _0_ MAC  --- 2 tcp 1098 [13a 5 0 800] ------- [0:0 5:0 30 5] [1 0] 0 0
s 0.016035131 _6_ RTR  --- 0 AODV 48 [0 ffffffff 3 800] ------- [6:255 -1:255 27 0] [0x2 4 1 [5 0] [0 4]] (REQUEST)
r 0.023899745 _5_ MAC  --- 2 tcp 1040 [13a 5 0 800] ------- [0:0 5:0 30 5] [1 0] 1 0
s 0.023909745 _5_ MAC  --- 0 ACK 38 [0 0 0 0] 
r 0.023924745 _5_ RTR  --- 4 ack 40 [0 0 0 0] ------- [5:0 0:0 32 0] [1 0] 0 0
s 0.023924745 _5_ RTR  --- 4 ack 40 [0 0 0 0] ------- [5:0 0:0 30 0] [1 0] 0 0
r 0.024214078 _0_ MAC  --- 0 ACK 38 [0 0 0 0] 
s 0.024284078 _0_ MAC  --- 0 RTS 44 [24ce 5 0 0] 
r 0.024636412 _5_ MAC  --- 0 RTS 44 [24ce 5 0 0] 
s 0.024646412 _5_ MAC  --- 0 CTS 38 [2394 0 0 0] 
r 0.024950745 _0_ MAC  --- 0 CTS 38 [2394 0 0 0] 
s 0.024960745 _0_ MAC  --- 3 tcp 1098 [13a 5 0 800] ------- [0:0 5:0 30 5] [2 0] 0 0
r 0.033745079 _5_ MAC  --- 3 tcp 1040 [13a 5 0 800] ------- [0:0 5:0 30 5] [2 0] 1 0
s 0.033755079 _5_ MAC  --- 0 ACK 38 [0 0 0 0] 
r 0.033770079 _5_ RTR  --- 5 ack 40 [0 0 0 0] ------- [5:0 0:0 32 0] [2 0] 0 0
s 0.033770079 _5_ RTR  --- 5 ack 40 [0 0 0 0] ------- [5:0 0:0 30 0] [2 0] 0 0
r 0.034059412 _0_ MAC  --- 0 ACK 38 [0 0 0 0] 
s 0.034649079 _5_ MAC  --- 0 RTS 44 [58e 0 5 0] 
r 0.035001412 _0_ MAC  --- 0 RTS 44 [58e 0 5 0] 
s 0.035011412 _0_ MAC  --- 0 CTS 38 [454 5 0 0] 
r 0.035315745 _5_ MAC  --- 0 CTS 38 [454 5 0 0] 
s 0.035325745 _5_ MAC  --- 4 ack 98 [13a 0 5 800] ------- [5:0 0:0 30 0] [1 0] 0 0
r 0.036110079 _0_ MAC  --- 4 ack 40 [13a 0 5 800] ------- [5:0 0:0 30 0] [1 0] 1 0
s 0.036120079 _0_ MAC  --- 0 ACK 38 [0 5 0 0] 
r 0.036135079 _0_ RTR  --- 6 tcp 1040 [0 0 0 0] ------- [0:0 5:0 32 0] [3 0] 0 0
r 0.036135079 _0_ RTR  --- 7 tcp 1040 [0 0 0 0] ------- [0:0 5:0 32 0] [4 0] 0 0
s 0.036135079 _0_ RTR  --- 6 tcp 1040 [0 0 0 0] ------- [0:0 5:0 30 5] [3 0] 0 0
s 0.036135079 _0_ RTR  --- 7 tcp 1040 [0 0 0 0] ------- [0:0 5:0 30 5] [4 0] 0 0
r 0.036424412 _5_ MAC  --- 0 ACK 38 [0 5 0 0] 
s 0.036914412 _5_ MAC  --- 0 RTS 44 [58e 0 5 0] 
r 0.037266746 _0_ MAC  --- 0 RTS 44 [58e 0 5 0] 
s 0.037276746 _0_ MAC  --- 0 CTS 38 [454 5 0 0] 
r 0.037581079 _5_ MAC  --- 0 CTS 38 [454 5 0 0] 
s 0.037591079 _5_ MAC  --- 5 ack 98 [13a 0 5 800] ------- [5:0 0:0 30 0] [2 0] 0 0
r 0.038375412 _0_ MAC  --- 5 ack 40 [13a 0 5 800] ------- [5:0 0:0 30 0] [2 0] 1 0
s 0.038385412 _0_ MAC  --- 0 ACK 38 [0 5 0 0] 
r 0.038400412 _0_ RTR  --- 8 tcp 1040 [0 0 0 0] ------- [0:0 5:0 32 0] [5 0] 0 0
r 0.038400412 _0_ RTR  --- 9 tcp 1040 [0 0 0 0] ------- [0:0 5:0 32 0] [6 0] 0 0
s 0.038400412 _0_ RTR  --- 8 tcp 1040 [0 0 0 0] ------- [0:0 5:0 30 5] [5 0] 0 0
s 0.038400412 _0_ RTR  --- 9 tcp 1040 [0 0 0 0] ------- [0:0 5:0 30 5] [6 0] 0 0
r 0.038689746 _5_ MAC  --- 0 ACK 38 [0 5 0 0] 
s 0.038839412 _0_ MAC  --- 0 RTS 44 [24ce 5 0 0] 
r 0.039191746 _5_ MAC  --- 0 RTS 44 [24ce 5 0 0] 
s 0.039201746 _5_ MAC  --- 0 CTS 38 [2394 0 0 0] 
r 0.039506079 _0_ MAC  --- 0 CTS 38 [2394 0 0 0] 
s 0.039516079 _0_ MAC  --- 6 tcp 1098 [13a 5 0 800] ------- [0:0 5:0 30 5] [3 0] 0 0
r 0.048300413 _5_ MAC  --- 6 tcp 1040 [13a 5 0 800] ------- [0:0 5:0 30 5] [3 0] 1 0
s 0.048310413 _5_ MAC  --- 0 ACK 38 [0 0 0 0] 
r 0.048325413 _5_ RTR  --- 10 ack 40 [0 0 0 0] ------- [5:0 0:0 32 0] [3 0] 0 0
s 0.048325413 _5_ RTR  --- 10 ack 40 [0 0 0 0] ------- [5:0 0:0 30 0] [3 0] 0 0
r 0.048614746 _0_ MAC  --- 0 ACK 38 [0 0 0 0] 
s 0.048704413 _5_ MAC  --- 0 RTS 44 [58e 0 5 0] 
r 0.049056746 _0_ MAC  --- 0 RTS 44 [58e 0 5 0] 
s 0.049066746 _0_ MAC  --- 0 CTS 38 [454 5 0 0] 
r 0.049371080 _5_ MAC  --- 0 CTS 38 [454 5 0 0] 
s 0.049381080 _5_ MAC  --- 10 ack 98 [13a 0 5 800] ------- [5:0 0:0 30 0] [3 0] 0 0
r 0.050165413 _0_ MAC  --- 10 ack 40 [13a 0 5 800] ------- [5:0 0:0 30 0] [3 0] 1 0
s 0.050175413 _0_ MAC  --- 0 ACK 38 [0 5 0 0] 
r 0.050190413 _0_ RTR  --- 11 tcp 1040 [0 0 0 0] ------- [0:0 5:0 32 0] [7 0] 0 0
r 0.050190413 _0_ RTR  --- 12 tcp 1040 [0 0 0 0] ------- [0:0 5:0 32 0] [8 0] 0 0
s 0.050190413 _0_ RTR  --- 11 tcp 1040 [0 0 0 0] ------- [0:0 5:0 30 5] [7 0] 0 0
s 0.050190413 _0_ RTR  --- 12 tcp 1040 [0 0 0 0] ------- [0:0 5:0 30 5] [8 0] 0 0
r 0.050479747 _5_ MAC  --- 0 ACK 38 [0 5 0 0] 
s 0.050809413 _0_ MAC  --- 0 RTS 44 [24ce 5 0 0] 
r 0.051161747 _5_ MAC  --- 0 RTS 44 [24ce 5 0 0] 
s 0.051171747 _5_ MAC  --- 0 CTS 38 [2394 0 0 0] 
r 0.051476080 _0_ MAC  --- 0 CTS 38 [2394 0 0 0] 
s 0.051486080 _0_ MAC  --- 7 tcp 1098 [13a 5 0 800] ------- [0:0 5:0 30 5] [4 0] 0 0
r 0.060270414 _5_ MAC  --- 7 tcp 1040 [13a 5 0 800] ------- [0:0 5:0 30 5] [4 0] 1 0
s 0.060280414 _5_ MAC  --- 0 ACK 38 [0 0 0 0] 
r 0.060295414 _5_ RTR  --- 13 ack 40 [0 0 0 0] ------- [5:0 0:0 32 0] [4 0] 0 0
s 0.060295414 _5_ RTR  --- 13 ack 40 [0 0 0 0] ------- [5:0 0:0 30 0] [4 0] 0 0
r 0.060584747 _0_ MAC  --- 0 ACK 38 [0 0 0 0] 
s 0.060734414 _5_ MAC  --- 0 RTS 44 [58e 0 5 0] 
r 0.061086747 _0_ MAC  --- 0 RTS 44 [58e 0 5 0] 
s 0.061096747 _0_ MAC  --- 0 CTS 38 [454 5 0 0] 
r 0.061401081 _5_ MAC  --- 0 CTS 38 [454 5 0 0] 
s 0.061411081 _5_ MAC  --- 13 ack 98 [13a 0 5 800] ------- [5:0 0:0 30 0] [4 0] 0 0
r 0.062195414 _0_ MAC  --- 13 ack 40 [13a 0 5 800] ------- [5:0 0:0 30 0] [4 0] 1 0
s 0.062205414 _0_ MAC  --- 0 ACK 38 [0 5 0 0] 
r 0.062220414 _0_ RTR  --- 14 tcp 1040 [0 0 0 0] ------- [0:0 5:0 32 0] [9 0] 0 0
r 0.062220414 _0_ RTR  --- 15 tcp 1040 [0 0 0 0] ------- [0:0 5:0 32 0] [10 0] 0 0
s 0.062220414 _0_ RTR  --- 14 tcp 1040 [0 0 0 0] ------- [0:0 5:0 30 5] [9 0] 0 0
s 0.062220414 _0_ RTR  --- 15 tcp 1040 [0 0 0 0] ------- [0:0 5:0 30 5] [10 0] 0 0
r 0.062509748 _5_ MAC  --- 0 ACK 38 [0 5 0 0] 
s 0.062779414 _0_ MAC  --- 0 RTS 44 [24ce 5 0 0] 
r 0.063131748 _5_ MAC  --- 0 RTS 44 [24ce 5 0 0] 
s 0.063141748 _5_ MAC  --- 0 CTS 38 [2394 0 0 0] 
r 0.063446081 _0_ MAC  --- 0 CTS 38 [2394 0 0 0] 
s 0.063456081 _0_ MAC  --- 8 tcp 1098 [13a 5 0 800] ------- [0:0 5:0 30 5] [5 0] 0 0
r 0.072240415 _5_ MAC  --- 8 tcp 1040 [13a 5 0 800] ------- [0:0 5:0 30 5] [5 0] 1 0
s 0.072250415 _5_ MAC  --- 0 ACK 38 [0 0 0 0] 
r 0.072265415 _5_ RTR  --- 16 ack 40 [0 0 0 0] ------- [5:0 0:0 32 0] [5 0] 0 0
s 0.072265415 _5_ RTR  --- 16 ack 40 [0 0 0 0] ------- [5:0 0:0 30 0] [5 0] 0 0
r 0.072554749 _0_ MAC  --- 0 ACK 38 [0 0 0 0] 
s 0.072664749 _0_ MAC  --- 0 RTS 44 [24ce 5 0 0] 
r 0.073017082 _5_ MAC  --- 0 RTS 44 [24ce 5 0 0] 
s 0.073027082 _5_ MAC  --- 0 CTS 38 [2394 0 0 0] 
r 0.073331416 _0_ MAC  --- 0 CTS 38 [2394 0 0 0] 
s 0.073341416 _0_ MAC  --- 9 tcp 1098 [13a 5 0 800] ------- [0:0 5:0 30 5] [6 0] 0 0
r 0.082125750 _5_ MAC  --- 9 tcp 1040 [13a 5 0 800] ------- [0:0 5:0 30 5] [6 0] 1 0
s 0.082135750 _5_ MAC  --- 0 ACK 38 [0 0 0 0] 
r 0.082150750 _5_ RTR  --- 17 ack 40 [0 0 0 0] ------- [5:0 0:0 32 0] [6 0] 0 0
s 0.082150750 _5_ RTR  --- 17 ack 40 [0 0 0 0] ------- [5:0 0:0 30 0] [6 0] 0 0
r 0.082440083 _0_ MAC  --- 0 ACK 38 [0 0 0 0] 
s 0.082590083 _0_ MAC  --- 0 RTS 44 [24ce 5 0 0] 
r 0.082942417 _5_ MAC  --- 0 RTS 44 [24ce 5 0 0] 
s 0.082952417 _5_ MAC  --- 0 CTS 38 [2394 0 0 0] 
r 0.083256751 _0_ MAC  --- 0 CTS 38 [2394 0 0 0] 
s 0.083266751 _0_ MAC  --- 11 tcp 1098 [13a 5 0 800] ------- [0:0 5:0 30 5] [7 0] 0 0
r 0.092051085 _5_ MAC  --- 11 tcp 1040 [13a 5 0 800] ------- [0:0 5:0 30 5] [7 0] 1 0
s 0.092061085 _5_ MAC  --- 0 ACK 38 [0 0 0 0] 
r 0.092076085 _5_ RTR  --- 18 ack 40 [0 0 0 0] ------- [5:0 0:0 32 0] [7 0] 0 0
s 0.092076085 _5_ RTR  --- 18 ack 40 [0 0 0 0] ------- [5:0 0:0 30 0] [7 0] 0 0
r 0.092365418 _0_ MAC  --- 0 ACK 38 [0 0 0 0] 
s 0.092655418 _0_ MAC  --- 0 RTS 44 [24ce 5 0 0] 
r 0.093007752 _5_ MAC  --- 0 RTS 44 [24ce 5 0 0] 
s 0.093017752 _5_ MAC  --- 0 CTS 38 [2394 0 0 0] 
r 0.093322086 _0_ MAC  --- 0 CTS 38 [2394 0 0 0] 
s 0.093332086 _0_ MAC  --- 12 tcp 1098 [13a 5 0 800] ------- [0:0 5:0 30 5] [8 0] 0 0
r 0.102116420 _5_ MAC  --- 12 tcp 1040 [13a 5 0 800] ------- [0:0 5:0 30 5] [8 0] 1 0
s 0.102126420 _5_ MAC  --- 0 ACK 38 [0 0 0 0] 
r 0.102141420 _5_ RTR  --- 19 ack 40 [0 0 0 0] ------- [5:0 0:0 32 0] [8 0] 0 0
s 0.102141420 _5_ RTR  --- 19 ack 40 [0 0 0 0] ------- [5:0 0:0 30 0] [8 0] 0 0
r 0.102430754 _0_ MAC  --- 0 ACK 38 [0 0 0 0] 
s 0.102520420 _5_ MAC  --- 0 RTS 44 [58e 0 5 0] 
r 0.102872754 _0_ MAC  --- 0 RTS 44 [58e 0 5 0] 
s 0.102882754 _0_ MAC  --- 0 CTS 38 [454 5 0 0] 
r 0.103187088 _5_ MAC  --- 0 CTS 38 [454 5 0 0] 
s 0.103197088 _5_ MAC  --- 16 ack 98 [13a 0 5 800] ------- [5:0 0:0 30 0] [5 0] 0 0
r 0.103981422 _0_ MAC  --- 16 ack 40 [13a 0 5 800] ------- [5:0 0:0 30 0] [5 0] 1 0
s 0.103991422 _0_ MAC  --- 0 ACK 38 [0 5 0 0] 
r 0.104006422 _0_ RTR  --- 20 tcp 1040 [0 0 0 0] ------- [0:0 5:0 32 0] [11 0] 0 0
r 0.104006422 _0_ RTR  --- 21 tcp 1040 [0 0 0 0] ------- [0:0 5:0 32 0] [12 0] 0 0
s 0.104006422 _0_ RTR  --- 20 tcp 1040 [0 0 0 0] ------- [0:0 5:0 30 5] [11 0] 0 0
s 0.104006422 _0_ RTR  --- 21 tcp 1040 [0 0 0 0] ------- [0:0 5:0 30 5] [12 0] 0 0
r 0.104295756 _5_ MAC  --- 0 ACK 38 [0 5 0 0] 
s 0.104505756 _5_ MAC  --- 0 RTS 44 [58e 0 5 0] 
r 0.104858090 _0_ MAC  --- 0 RTS 44 [58e 0 5 0] 
s 0.104868090 _0_ MAC  --- 0 CTS 38 [454 5 0 0] 
r 0.105172424 _5_ MAC  --- 0 CTS 38 [454 5 0 0] 
s 0.105182424 _5_ MAC  --- 17 ack 98 [13a 0 5 800] ------- [5:0 0:0 30 0] [6 0] 0 0
r 0.105966758 _0_ MAC  --- 17 ack 40 [13a 0 5 800] ------- [5:0 0:0 30 0] [6 0] 1 0
s 0.105976758 _0_ MAC  --- 0 ACK 38 [0 5 0 0] 
r 0.105991758 _0_ RTR  --- 22 tcp 1040 [0 0 0 0] ------- [0:0 5:0 32 0] [13 0] 0 0
r 0.105991758 _0_ RTR  --- 23 tcp 1040 [0 0 0 0] ------- [0:0 5:0 32 0] [14 0] 0 0
s 0.105991758 _0_ RTR  --- 22 tcp 1040 [0 0 0 0] ------- [0:0 5:0 30 5] [13 0] 0 0
s 0.105991758 _0_ RTR  --- 23 tcp 1040 [0 0 0 0] ------- [0:0 5:0 30 5] [14 0] 0 0
r 0.106281092 _5_ MAC  --- 0 ACK 38 [0 5 0 0] 
s 0.106450758 _0_ MAC  --- 0 RTS 44 [24ce 5 0 0] 
r 0.106803092 _5_ MAC  --- 0 RTS 44 [24ce 5 0 0] 
s 0.106813092 _5_ MAC  --- 0 CTS 38 [2394 0 0 0] 
r 0.107117426 _0_ MAC  --- 0 CTS 38 [2394 0 0 0] 
s 0.107127426 _0_ MAC  --- 14 tcp 1098 [13a 5 0 800] ------- [0:0 5:0 30 5] [9 0] 0 0
r 0.115911760 _5_ MAC  --- 14 tcp 1040 [13a 5 0 800] ------- [0:0 5:0 30 5] [9 0] 1 0
s 0.115921760 _5_ MAC  --- 0 ACK 38 [0 0 0 0] 
r 0.115936760 _5_ RTR  --- 24 ack 40 [0 0 0 0] ------- [5:0 0:0 32 0] [9 0] 0 0
s 0.115936760 _5_ RTR  --- 24 ack 40 [0 0 0 0] ------- [5:0 0:0 30 0] [9 0] 0 0
r 0.116226094 _0_ MAC  --- 0 ACK 38 [0 0 0 0] 
s 0.116416094 _0_ MAC  --- 0 RTS 44 [24ce 5 0 0] 
r 0.116768428 _5_ MAC  --- 0 RTS 44 [24ce 5 0 0] 
s 0.116778428 _5_ MAC  --- 0 CTS 38 [2394 0 0 0] 
r 0.117082762 _0_ MAC  --- 0 CTS 38 [2394 0 0 0] 
s 0.117092762 _0_ MAC  --- 15 tcp 1098 [13a 5 0 800] ------- [0:0 5:0 30 5] [10 0] 0 0
r 0.125877096 _5_ MAC  --- 15 tcp 1040 [13a 5 0 800] ------- [0:0 5:0 30 5] [10 0] 1 0
s 0.125887096 _5_ MAC  --- 0 ACK 38 [0 0 0 0] 
r 0.125902096 _5_ RTR  --- 25 ack 40 [0 0 0 0] ------- [5:0 0:0 32 0] [10 0] 0 0
s 0.125902096 _5_ RTR  --- 25 ack 40 [0 0 0 0] ------- [5:0 0:0 30 0] [10 0] 0 0
r 0.126191431 _0_ MAC  --- 0 ACK 38 [0 0 0 0] 
s 0.126461096 _5_ MAC  --- 0 RTS 44 [58e 0 5 0] 
r 0.126813431 _0_ MAC  --- 0 RTS 44 [58e 0 5 0] 
s 0.126823431 _0_ MAC  --- 0 CTS 38 [454 5 0 0] 
r 0.127127765 _5_ MAC  --- 0 CTS 38 [454 5 0 0] 
s 0.127137765 _5_ MAC  --- 18 ack 98 [13a 0 5 800] ------- [5:0 0:0 30 0] [7 0] 0 0
r 0.127922099 _0_ MAC  --- 18 ack 40 [13a 0 5 800] ------- [5:0 0:0 30 0] [7 0] 1 0
s 0.127932099 _0_ MAC  --- 0 ACK 38 [0 5 0 0] 
r 0.127947099 _0_ RTR  --- 26 tcp 1040 [0 0 0 0] ------- [0:0 5:0 32 0] [15 0] 0 0
r 0.127947099 _0_ RTR  --- 27 tcp 1040 [0 0 0 0] ------- [0:0 5:0 32 0] [16 0] 0 0
s 0.127947099 _0_ RTR  --- 26 tcp 1040 [0 0 0 0] ------- [0:0 5:0 30 5] [15 0] 0 0
s 0.127947099 _0_ RTR  --- 27 tcp 1040 [0 0 0 0] ------- [0:0 5:0 30 5] [16 0] 0 0
r 0.128236434 _5_ MAC  --- 0 ACK 38 [0 5 0 0] 
s 0.128626099 _0_ MAC  --- 0 RTS 44 [24ce 5 0 0] 
r 0.128978434 _5_ MAC  --- 0 RTS 44 [24ce 5 0 0] 
s 0.128988434 _5_ MAC  --- 0 CTS 38 [2394 0 0 0] 
r 0.129292768 _0_ MAC  --- 0 CTS 38 [2394 0 0 0] 
s 0.129302768 _0_ MAC  --- 20 tcp 1098 [13a 5 0 800] ------- [0:0 5:0 30 5] [11 0] 0 0
r 0.138087102 _5_ MAC  --- 20 tcp 1040 [13a 5 0 800] ------- [0:0 5:0 30 5] [11 0] 1 0
s 0.138097102 _5_ MAC  --- 0 ACK 38 [0 0 0 0] 
r 0.138112102 _5_ RTR  --- 28 ack 40 [0 0 0 0] ------- [5:0 0:0 32 0] [11 0] 0 0
s 0.138112102 _5_ RTR  --- 28 ack 40 [0 0 0 0] ------- [5:0 0:0 30 0] [11 0] 0 0
r 0.138401437 _0_ MAC  --- 0 ACK 38 [0 0 0 0] 
s 0.138471102 _5_ MAC  --- 0 RTS 44 [58e 0 5 0] 
r 0.138823437 _0_ MAC  --- 0 RTS 44 [58e 0 5 0] 
s 0.138833437 _0_ MAC  --- 0 CTS 38 [454 5 0 0] 
r 0.139137771 _5_ MAC  --- 0 CTS 38 [454 5 0 0] 
s 0.139147771 _5_ MAC  --- 19 ack 98 [13a 0 5 800] ------- [5:0 0:0 30 0] [8 0] 0 0
r 0.139932106 _0_ MAC  --- 19 ack 40 [13a 0 5 800] ------- [5:0 0:0 30 0] [8 0] 1 0
s 0.139942106 _0_ MAC  --- 0 ACK 38 [0 5 0 0] 
r 0.139957106 _0_ RTR  --- 29 tcp 1040 [0 0 0 0] ------- [0:0 5:0 32 0] [17 0] 0 0
r 0.139957106 _0_ RTR  --- 30 tcp 1040 [0 0 0 0] ------- [0:0 5:0 32 0] [18 0] 0 0
s 0.139957106 _0_ RTR  --- 29 tcp 1040 [0 0 0 0] ------- [0:0 5:0 30 5] [17 0] 0 0
s 0.139957106 _0_ RTR  --- 30 tcp 1040 [0 0 0 0] ------- [0:0 5:0 30 5] [18 0] 0 0
r 0.140246440 _5_ MAC  --- 0 ACK 38 [0 5 0 0] 
s 0.140336440 _5_ MAC  --- 0 RTS 44 [58e 0 5 0] 
r 0.140688775 _0_ MAC  --- 0 RTS 44 [58e 0 5 0] 
s 0.140698775 _0_ MAC  --- 0 CTS 38 [454 5 0 0] 
r 0.141003109 _5_ MAC  --- 0 CTS 38 [454 5 0 0] 
s 0.141013109 _5_ MAC  --- 24 ack 98 [13a 0 5 800] ------- [5:0 0:0 30 0] [9 0] 0 0
r 0.141797444 _0_ MAC  --- 24 ack 40 [13a 0 5 800] ------- [5:0 0:0 30 0] [9 0] 1 0
s 0.141807444 _0_ MAC  --- 0 ACK 38 [0 5 0 0] 
r 0.141822444 _0_ RTR  --- 31 tcp 1040 [0 0 0 0] ------- [0:0 5:0 32 0] [19 0] 0 0
r 0.141822444 _0_ RTR  --- 32 tcp 1040 [0 0 0 0] ------- [0:0 5:0 32 0] [20 0] 0 0
s 0.141822444 _0_ RTR  --- 31 tcp 1040 [0 0 0 0] ------- [0:0 5:0 30 5] [19 0] 0 0
s 0.141822444 _0_ RTR  --- 32 tcp 1040 [0 0 0 0] ------- [0:0 5:0 30 5] [20 0] 0 0
r 0.142111778 _5_ MAC  --- 0 ACK 38 [0 5 0 0] 
s 0.142221778 _5_ MAC  --- 0 RTS 44 [58e 0 5 0] 
r 0.142574113 _0_ MAC  --- 0 RTS 44 [58e 0 5 0] 
s 0.142584113 _0_ MAC  --- 0 CTS 38 [454 5 0 0] 
r 0.142888448 _5_ MAC  --- 0 CTS 38 [454 5 0 0] 
s 0.142898448 _5_ MAC  --- 25 ack 98 [13a 0 5 800] ------- [5:0 0:0 30 0] [10 0] 0 0
r 0.143682782 _0_ MAC  --- 25 ack 40 [13a 0 5 800] ------- [5:0 0:0 30 0] [10 0] 1 0
s 0.143692782 _0_ MAC  --- 0 ACK 38 [0 5 0 0] 
r 0.143707782 _0_ RTR  --- 33 tcp 1040 [0 0 0 0] ------- [0:0 5:0 32 0] [21 0] 0 0
r 0.143707782 _0_ RTR  --- 34 tcp 1040 [0 0 0 0] ------- [0:0 5:0 32 0] [22 0] 0 0
s 0.143707782 _0_ RTR  --- 33 tcp 1040 [0 0 0 0] ------- [0:0 5:0 30 5] [21 0] 0 0
s 0.143707782 _0_ RTR  --- 34 tcp 1040 [0 0 0 0] ------- [0:0 5:0 30 5] [22 0] 0 0
r 0.143997117 _5_ MAC  --- 0 ACK 38 [0 5 0 0] 
s 0.144146782 _0_ MAC  --- 0 RTS 44 [24ce 5 0 0] 
r 0.144499117 _5_ MAC  --- 0 RTS 44 [24ce 5 0 0] 
s 0.144509117 _5_ MAC  --- 0 CTS 38 [2394 0 0 0] 
r 0.144813451 _0_ MAC  --- 0 CTS 38 [2394 0 0 0] 
s 0.144823451 _0_ MAC  --- 21 tcp 1098 [13a 5 0 800] ------- [0:0 5:0 30 5] [12 0] 0 0
r 0.153607786 _5_ MAC  --- 21 tcp 1040 [13a 5 0 800] ------- [0:0 5:0 30 5] [12 0] 1 0
s 0.153617786 _5_ MAC  --- 0 ACK 38 [0 0 0 0] 
r 0.153632786 _5_ RTR  --- 35 ack 40 [0 0 0 0] ------- [5:0 0:0 32 0] [12 0] 0 0
s 0.153632786 _5_ RTR  --- 35 ack 40 [0 0 0 0] ------- [5:0 0:0 30 0] [12 0] 0 0
r 0.153922121 _0_ MAC  --- 0 ACK 38 [0 0 0 0] 
s 0.154052121 _0_ MAC  --- 0 RTS 44 [24ce 5 0 0] 
r 0.154404455 _5_ MAC  --- 0 RTS 44 [24ce 5 0 0] 
s 0.154414455 _5_ MAC  --- 0 CTS 38 [2394 0 0 0] 
r 0.154718790 _0_ MAC  --- 0 CTS 38 [2394 0 0 0] 
s 0.154728790 _0_ MAC  --- 22 tcp 1098 [13a 5 0 800] ------- [0:0 5:0 30 5] [13 0] 0 0
r 0.163513125 _5_ MAC  --- 22 tcp 1040 [13a 5 0 800] ------- [0:0 5:0 30 5] [13 0] 1 0
s 0.163523125 _5_ MAC  --- 0 ACK 38 [0 0 0 0] 
r 0.163538125 _5_ RTR  --- 36 ack 40 [0 0 0 0] ------- [5:0 0:0 32 0] [13 0] 0 0
s 0.163538125 _5_ RTR  --- 36 ack 40 [0 0 0 0] ------- [5:0 0:0 30 0] [13 0] 0 0
r 0.163827460 _0_ MAC  --- 0 ACK 38 [0 0 0 0] 
s 0.163937125 _5_ MAC  --- 0 RTS 44 [58e 0 5 0] 
r 0.164289460 _0_ MAC  --- 0 RTS 44 [58e 0 5 0] 
s 0.164299460 _0_ MAC  --- 0 CTS 38 [454 5 0 0] 
r 0.164603795 _5_ MAC  --- 0 CTS 38 [454 5 0 0] 
s 0.164613795 _5_ MAC  --- 28 ack 98 [13a 0 5 800] ------- [5:0 0:0 30 0] [11 0] 0 0
r 0.165398130 _0_ MAC  --- 28 ack 40 [13a 0 5 800] ------- [5:0 0:0 30 0] [11 0] 1 0
s 0.165408130 _0_ MAC  --- 0 ACK 38 [0 5 0 0] 
r 0.165423130 _0_ RTR  --- 37 tcp 1040 [0 0 0 0] ------- [0:0 5:0 32 0] [23 0] 0 0
r 0.165423130 _0_ RTR  --- 38 tcp 1040 [0 0 0 0] ------- [0:0 5:0 32 0] [24 0] 0 0
s 0.165423130 _0_ RTR  --- 37 tcp 1040 [0 0 0 0] ------- [0:0 5:0 30 5] [23 0] 0 0
s 0.165423130 _0_ RTR  --- 38 tcp 1040 [0 0 0 0] ------- [0:0 5:0 30 5] [24 0] 0 0
r 0.165712465 _5_ MAC  --- 0 ACK 38 [0 5 0 0] 
s 0.165882465 _5_ MAC  --- 0 RTS 44 [58e 0 5 0] 
r 0.166234800 _0_ MAC  --- 0 RTS 44 [58e 0 5 0] 
s 0.166244800 _0_ MAC  --- 0 CTS 38 [454 5 0 0] 
r 0.166549135 _5_ MAC  --- 0 CTS 38 [454 5 0 0] 
s 0.166559135 _5_ MAC  --- 35 ack 98 [13a 0 5 800] ------- [5:0 0:0 30 0] [12 0] 0 0
r 0.167343470 _0_ MAC  --- 35 ack 40 [13a 0 5 800] ------- [5:0 0:0 30 0] [12 0] 1 0
s 0.167353470 _0_ MAC  --- 0 ACK 38 [0 5 0 0] 
r 0.167368470 _0_ RTR  --- 39 tcp 1040 [0 0 0 0] ------- [0:0 5:0 32 0] [25 0] 0 0
r 0.167368470 _0_ RTR  --- 40 tcp 1040 [0 0 0 0] ------- [0:0 5:0 32 0] [26 0] 0 0
s 0.167368470 _0_ RTR  --- 39 tcp 1040 [0 0 0 0] ------- [0:0 5:0 30 5] [25 0] 0 0
s 0.167368470 _0_ RTR  --- 40 tcp 1040 [0 0 0 0] ------- [0:0 5:0 30 5] [26 0] 0 0
r 0.167657805 _5_ MAC  --- 0 ACK 38 [0 5 0 0] 
s 0.167747470 _0_ MAC  --- 0 RTS 44 [24ce 5 0 0] 
r 0.168099805 _5_ MAC  --- 0 RTS 44 [24ce 5 0 0] 
s 0.168109805 _5_ MAC  --- 0 CTS 38 [2394 0 0 0] 
r 0.168414140 _0_ MAC  --- 0 CTS 38 [2394 0 0 0] 
s 0.168424140 _0_ MAC  --- 23 tcp 1098 [13a 5 0 800] ------- [0:0 5:0 30 5] [14 0] 0 0
r 0.177208475 _5_ MAC  --- 23 tcp 1040 [13a 5 0 800] ------- [0:0 5:0 30 5] [14 0] 1 0
s 0.177218475 _5_ MAC  --- 0 ACK 38 [0 0 0 0] 
r 0.177233475 _5_ RTR  --- 41 ack 40 [0 0 0 0] ------- [5:0 0:0 32 0] [14 0] 0 0
s 0.177233475 _5_ RTR  --- 41 ack 40 [0 0 0 0] ------- [5:0 0:0 30 0] [14 0] 0 0
r 0.177522810 _0_ MAC  --- 0 ACK 38 [0 0 0 0] 
s 0.177792810 _0_ MAC  --- 0 RTS 44 [24ce 5 0 0] 
r 0.178145145 _5_ MAC  --- 0 RTS 44 [24ce 5 0 0] 
s 0.178155145 _5_ MAC  --- 0 CTS 38 [2394 0 0 0] 
r 0.178459480 _0_ MAC  --- 0 CTS 38 [2394 0 0 0] 
s 0.178469480 _0_ MAC  --- 26 tcp 1098 [13a 5 0 800] ------- [0:0 5:0 30 5] [15 0] 0 0
r 0.187253816 _5_ MAC  --- 26 tcp 1040 [13a 5 0 800] ------- [0:0 5:0 30 5] [15 0] 1 0
s 0.187263816 _5_ MAC  --- 0 ACK 38 [0 0 0 0] 
r 0.187278816 _5_ RTR  --- 42 ack 40 [0 0 0 0] ------- [5:0 0:0 32 0] [15 0] 0 0
s 0.187278816 _5_ RTR  --- 42 ack 40 [0 0 0 0] ------- [5:0 0:0 30 0] [15 0] 0 0
r 0.187568151 _0_ MAC  --- 0 ACK 38 [0 0 0 0] 
s 0.187618151 _0_ MAC  --- 0 RTS 44 [24ce 5 0 0] 
r 0.187970486 _5_ MAC  --- 0 RTS 44 [24ce 5 0 0] 
s 0.187980486 _5_ MAC  --- 0 CTS 38 [2394 0 0 0] 
r 0.188284822 _0_ MAC  --- 0 CTS 38 [2394 0 0 0] 
s 0.188294822 _0_ MAC  --- 27 tcp 1098 [13a 5 0 800] ------- [0:0 5:0 30 5] [16 0] 0 0
r 0.197079157 _5_ MAC  --- 27 tcp 1040 [13a 5 0 800] ------- [0:0 5:0 30 5] [16 0] 1 0
s 0.197089157 _5_ MAC  --- 0 ACK 38 [0 0 0 0] 
r 0.197104157 _5_ RTR  --- 43 ack 40 [0 0 0 0] ------- [5:0 0:0 32 0] [16 0] 0 0
s 0.197104157 _5_ RTR  --- 43 ack 40 [0 0 0 0] ------- [5:0 0:0 30 0] [16 0] 0 0
r 0.197393493 _0_ MAC  --- 0 ACK 38 [0 0 0 0] 
s 0.197783157 _5_ MAC  --- 0 RTS 44 [58e 0 5 0] 
r 0.198135493 _0_ MAC  --- 0 RTS 44 [58e 0 5 0] 
s 0.198145493 _0_ MAC  --- 0 CTS 38 [454 5 0 0] 
r 0.198449829 _5_ MAC  --- 0 CTS 38 [454 5 0 0] 
s 0.198459829 _5_ MAC  --- 36 ack 98 [13a 0 5 800] ------- [5:0 0:0 30 0] [13 0] 0 0
r 0.199244164 _0_ MAC  --- 36 ack 40 [13a 0 5 800] ------- [5:0 0:0 30 0] [13 0] 1 0
s 0.199254164 _0_ MAC  --- 0 ACK 38 [0 5 0 0] 
r 0.199269164 _0_ RTR  --- 44 tcp 1040 [0 0 0 0] ------- [0:0 5:0 32 0] [27 0] 0 0
r 0.199269164 _0_ RTR  --- 45 tcp 1040 [0 0 0 0] ------- [0:0 5:0 32 0] [28 0] 0 0
s 0.199269164 _0_ RTR  --- 44 tcp 1040 [0 0 0 0] ------- [0:0 5:0 30 5] [27 0] 0 0
s 0.199269164 _0_ RTR  --- 45 tcp 1040 [0 0 0 0] ------- [0:0 5:0 30 5] [28 0] 0 0
r 0.199558500 _5_ MAC  --- 0 ACK 38 [0 5 0 0] 
s 0.199868164 _0_ MAC  --- 0 RTS 44 [24ce 5 0 0] 
r 0.200220500 _5_ MAC  --- 0 RTS 44 [24ce 5 0 0] 
s 0.200230500 _5_ MAC  --- 0 CTS 38 [2394 0 0 0] 
r 0.200534836 _0_ MAC  --- 0 CTS 38 [2394 0 0 0] 
s 0.200544836 _0_ MAC  --- 29 tcp 1098 [13a 5 0 800] ------- [0:0 5:0 30 5] [17 0] 0 0
r 0.209329172 _5_ MAC  --- 29 tcp 1040 [13a 5 0 800] ------- [0:0 5:0 30 5] [17 0] 1 0
s 0.209339172 _5_ MAC  --- 0 ACK 38 [0 0 0 0] 
r 0.209354172 _5_ RTR  --- 46 ack 40 [0 0 0 0] ------- [5:0 0:0 32 0] [17 0] 0 0
s 0.209354172 _5_ RTR  --- 46 ack 40 [0 0 0 0] ------- [5:0 0:0 30 0] [17 0] 0 0
r 0.209643508 _0_ MAC  --- 0 ACK 38 [0 0 0 0] 
s 0.209713508 _0_ MAC  --- 0 RTS 44 [24ce 5 0 0] 
r 0.210065844 _5_ MAC  --- 0 RTS 44 [24ce 5 0 0] 
s 0.210075844 _5_ MAC  --- 0 CTS 38 [2394 0 0 0] 
r 0.210380180 _0_ MAC  --- 0 CTS 38 [2394 0 0 0] 
s 0.210390180 _0_ MAC  --- 30 tcp 1098 [13a 5 0 800] ------- [0:0 5:0 30 5] [18 0] 0 0
r 0.219174515 _5_ MAC  --- 30 tcp 1040 [13a 5 0 800] ------- [0:0 5:0 30 5] [18 0] 1 0
s 0.219184515 _5_ MAC  --- 0 ACK 38 [0 0 0 0] 
r 0.219199515 _5_ RTR  --- 47 ack 40 [0 0 0 0] ------- [5:0 0:0 32 0] [18 0] 0 0
s 0.219199515 _5_ RTR  --- 47 ack 40 [0 0 0 0] ------- [5:0 0:0 30 0] [18 0] 0 0