n -t * -s 0  -x 0 -y 0 -Z 0 -z 30  -v circle -c black
n -t * -s 1  -x 0 -y 0 -Z 0 -z 30  -v circle -c black
V -t * -v 1.0a5 -a 0
W -t * -x 500 -y 500
A -t * -n 1 -p 0 -o 0x7fffffff -c 30 -a 1
A -t * -h 1 -m 1073741823 -s 0
c -t * -i 4 -n brown
c -t * -i 0 -n blue
c -t * -i 5 -n tan
c -t * -i 1 -n red
c -t * -i 6 -n gold
c -t * -i 2 -n chocolate
c -t * -i 7 -n black
c -t * -i 3 -n red
n -t 0.000000 -s 0 -x 100.000000 -y 100.000000 -U 0.000000 -V 0.000000 -T 0.000000
n -t 0.000000 -s 1 -x 150.000000 -y 100.000000 -U 0.000000 -V 0.000000 -T 0.000000
+ -t 1.000000000 -s 0 -d -1 -p AODV -e 48 -c 2 -a 0 -i 0 -k RTR 
- -t 1.000000000 -s 0 -d -1 -p AODV -e 48 -c 2 -a 0 -i 0 -k RTR
h -t 1.000000000 -s 0 -d -1 -p AODV -e 48 -c 2 -a 0 -i 0 -k RTR
+ -t 1.000575000 -s 0 -d -1 -p AODV -e 106 -c 2 -a 0 -i 0 -k MAC 
- -t 1.000575000 -s 0 -d -1 -p AODV -e 106 -c 2 -a 0 -i 0 -k MAC
h -t 1.000575000 -s 0 -d -1 -p AODV -e 106 -c 2 -a 0 -i 0 -k MAC
r -t 1.001423167 -s 1 -d -1 -p AODV -e 48 -c 2 -a 0 -i 0 -k MAC
r -t 1.001448167 -s 1 -d -1 -p AODV -e 48 -c 2 -a 0 -i 0 -k RTR
+ -t 1.001448167 -s 1 -d 0 -p AODV -e 44 -c 2 -a 0 -i 0 -k RTR 
- -t 1.001448167 -s 1 -d 0 -p AODV -e 44 -c 2 -a 0 -i 0 -k RTR
h -t 1.001448167 -s 1 -d 0 -p AODV -e 44 -c 2 -a 0 -i 0 -k RTR
+ -t 1.001743167 -s 1 -d -1 -p ARP -e 86 -c 2 -a 0 -i 0 -k MAC 
- -t 1.001743167 -s 1 -d -1 -p ARP -e 86 -c 2 -a 0 -i 0 -k MAC
h -t 1.001743167 -s 1 -d -1 -p ARP -e 86 -c 2 -a 0 -i 0 -k MAC
r -t 1.002431333 -s 0 -d -1 -p ARP -e 28 -c 2 -a 0 -i 0 -k MAC
+ -t 1.003086333 -s 0 -d -1 -p RTS -e 44 -c 2 -a 0 -i 0 -k MAC 
- -t 1.003086333 -s 0 -d -1 -p RTS -e 44 -c 2 -a 0 -i 0 -k MAC
h -t 1.003086333 -s 0 -d -1 -p RTS -e 44 -c 2 -a 0 -i 0 -k MAC
r -t 1.003438500 -s 1 -d -1 -p RTS -e 44 -c 2 -a 0 -i 0 -k MAC
+ -t 1.003448500 -s 1 -d -1 -p CTS -e 38 -c 2 -a 0 -i 0 -k MAC 
- -t 1.003448500 -s 1 -d -1 -p CTS -e 38 -c 2 -a 0 -i 0 -k MAC
h -t 1.003448500 -s 1 -d -1 -p CTS -e 38 -c 2 -a 0 -i 0 -k MAC
r -t 1.003752667 -s 0 -d -1 -p CTS -e 38 -c 2 -a 0 -i 0 -k MAC
+ -t 1.003762667 -s 0 -d -1 -p ARP -e 86 -c 2 -a 0 -i 0 -k MAC 
- -t 1.003762667 -s 0 -d -1 -p ARP -e 86 -c 2 -a 0 -i 0 -k MAC
h -t 1.003762667 -s 0 -d -1 -p ARP -e 86 -c 2 -a 0 -i 0 -k MAC
r -t 1.004450833 -s 1 -d -1 -p ARP -e 28 -c 2 -a 0 -i 0 -k MAC
+ -t 1.004460833 -s 1 -d -1 -p ACK -e 38 -c 2 -a 0 -i 0 -k MAC 
- -t 1.004460833 -s 1 -d -1 -p ACK -e 38 -c 2 -a 0 -i 0 -k MAC
h -t 1.004460833 -s 1 -d -1 -p ACK -e 38 -c 2 -a 0 -i 0 -k MAC
r -t 1.004765000 -s 0 -d -1 -p ACK -e 38 -c 2 -a 0 -i 0 -k MAC
+ -t 1.004834833 -s 1 -d -1 -p RTS -e 44 -c 2 -a 0 -i 0 -k MAC 
- -t 1.004834833 -s 1 -d -1 -p RTS -e 44 -c 2 -a 0 -i 0 -k MAC
h -t 1.004834833 -s 1 -d -1 -p RTS -e 44 -c 2 -a 0 -i 0 -k MAC
r -t 1.005187000 -s 0 -d -1 -p RTS -e 44 -c 2 -a 0 -i 0 -k MAC
+ -t 1.005197000 -s 0 -d -1 -p CTS -e 38 -c 2 -a 0 -i 0 -k MAC 
- -t 1.005197000 -s 0 -d -1 -p CTS -e 38 -c 2 -a 0 -i 0 -k MAC
h -t 1.005197000 -s 0 -d -1 -p CTS -e 38 -c 2 -a 0 -i 0 -k MAC
r -t 1.005501167 -s 1 -d -1 -p CTS -e 38 -c 2 -a 0 -i 0 -k MAC
+ -t 1.005511167 -s 1 -d 0 -p AODV -e 102 -c 2 -a 0 -i 0 -k MAC 
- -t 1.005511167 -s 1 -d 0 -p AODV -e 102 -c 2 -a 0 -i 0 -k MAC
h -t 1.005511167 -s 1 -d 0 -p AODV -e 102 -c 2 -a 0 -i 0 -k MAC
r -t 1.006327333 -s 0 -d 0 -p AODV -e 44 -c 2 -a 0 -i 0 -k MAC
+ -t 1.006337333 -s 0 -d -1 -p ACK -e 38 -c 2 -a 0 -i 0 -k MAC 
- -t 1.006337333 -s 0 -d -1 -p ACK -e 38 -c 2 -a 0 -i 0 -k MAC
h -t 1.006337333 -s 0 -d -1 -p ACK -e 38 -c 2 -a 0 -i 0 -k MAC
+ -t 1.006352333 -s 0 -d 1 -p tcp -e 40 -c 2 -a 0 -i 0 -k RTR 
- -t 1.006352333 -s 0 -d 1 -p tcp -e 40 -c 2 -a 0 -i 0 -k RTR
h -t 1.006352333 -s 0 -d 1 -p tcp -e 40 -c 2 -a 0 -i 0 -k RTR
r -t 1.006641500 -s 1 -d -1 -p ACK -e 38 -c 2 -a 0 -i 0 -k MAC
+ -t 1.006811333 -s 0 -d -1 -p RTS -e 44 -c 2 -a 0 -i 0 -k MAC 
- -t 1.006811333 -s 0 -d -1 -p RTS -e 44 -c 2 -a 0 -i 0 -k MAC
h -t 1.006811333 -s 0 -d -1 -p RTS -e 44 -c 2 -a 0 -i 0 -k MAC
r -t 1.007163500 -s 1 -d -1 -p RTS -e 44 -c 2 -a 0 -i 0 -k MAC
+ -t 1.007173500 -s 1 -d -1 -p CTS -e 38 -c 2 -a 0 -i 0 -k MAC 
- -t 1.007173500 -s 1 -d -1 -p CTS -e 38 -c 2 -a 0 -i 0 -k MAC
h -t 1.007173500 -s 1 -d -1 -p CTS -e 38 -c 2 -a 0 -i 0 -k MAC
r -t 1.007477667 -s 0 -d -1 -p CTS -e 38 -c 2 -a 0 -i 0 -k MAC
+ -t 1.007487667 -s 0 -d 1 -p tcp -e 98 -c 2 -a 0 -i 0 -k MAC 
- -t 1.007487667 -s 0 -d 1 -p tcp -e 98 -c 2 -a 0 -i 0 -k MAC
h -t 1.007487667 -s 0 -d 1 -p tcp -e 98 -c 2 -a 0 -i 0 -k MAC
r -t 1.008271833 -s 1 -d 1 -p tcp -e 40 -c 2 -a 0 -i 0 -k MAC
+ -t 1.008281833 -s 1 -d -1 -p ACK -e 38 -c 2 -a 0 -i 0 -k MAC 
- -t 1.008281833 -s 1 -d -1 -p ACK -e 38 -c 2 -a 0 -i 0 -k MAC
h -t 1.008281833 -s 1 -d -1 -p ACK -e 38 -c 2 -a 0 -i 0 -k MAC
+ -t 1.008296833 -s 1 -d 0 -p ack -e 40 -c 2 -a 0 -i 1 -k RTR 
- -t 1.008296833 -s 1 -d 0 -p ack -e 40 -c 2 -a 0 -i 1 -k RTR
h -t 1.008296833 -s 1 -d 0 -p ack -e 40 -c 2 -a 0 -i 1 -k RTR
r -t 1.008586000 -s 0 -d -1 -p ACK -e 38 -c 2 -a 0 -i 0 -k MAC
+ -t 1.008775833 -s 1 -d -1 -p RTS -e 44 -c 2 -a 0 -i 0 -k MAC 
- -t 1.008775833 -s 1 -d -1 -p RTS -e 44 -c 2 -a 0 -i 0 -k MAC
h -t 1.008775833 -s 1 -d -1 -p RTS -e 44 -c 2 -a 0 -i 0 -k MAC
r -t 1.009128000 -s 0 -d -1 -p RTS -e 44 -c 2 -a 0 -i 0 -k MAC
+ -t 1.009138000 -s 0 -d -1 -p CTS -e 38 -c 2 -a 0 -i 0 -k MAC 
- -t 1.009138000 -s 0 -d -1 -p CTS -e 38 -c 2 -a 0 -i 0 -k MAC
h -t 1.009138000 -s 0 -d -1 -p CTS -e 38 -c 2 -a 0 -i 0 -k MAC
r -t 1.009442167 -s 1 -d -1 -p CTS -e 38 -c 2 -a 0 -i 0 -k MAC
+ -t 1.009452167 -s 1 -d 0 -p ack -e 98 -c 2 -a 0 -i 1 -k MAC 
- -t 1.009452167 -s 1 -d 0 -p ack -e 98 -c 2 -a 0 -i 1 -k MAC
h -t 1.009452167 -s 1 -d 0 -p ack -e 98 -c 2 -a 0 -i 1 -k MAC
r -t 1.010236333 -s 0 -d 0 -p ack -e 40 -c 2 -a 0 -i 1 -k MAC
+ -t 1.010246333 -s 0 -d -1 -p ACK -e 38 -c 2 -a 0 -i 0 -k MAC 
- -t 1.010246333 -s 0 -d -1 -p ACK -e 38 -c 2 -a 0 -i 0 -k MAC
h -t 1.010246333 -s 0 -d -1 -p ACK -e 38 -c 2 -a 0 -i 0 -k MAC
+ -t 1.010261333 -s 0 -d 1 -p tcp -e 1040 -c 2 -a 0 -i 2 -k RTR 
- -t 1.010261333 -s 0 -d 1 -p tcp -e 1040 -c 2 -a 0 -i 2 -k RTR
h -t 1.010261333 -s 0 -d 1 -p tcp -e 1040 -c 2 -a 0 -i 2 -k RTR
+ -t 1.010261333 -s 0 -d 1 -p tcp -e 1040 -c 2 -a 0 -i 3 -k RTR 
- -t 1.010261333 -s 0 -d 1 -p tcp -e 1040 -c 2 -a 0 -i 3 -k RTR
h -t 1.010261333 -s 0 -d 1 -p tcp -e 1040 -c 2 -a 0 -i 3 -k RTR
r -t 1.010550500 -s 1 -d -1 -p ACK -e 38 -c 2 -a 0 -i 0 -k MAC
+ -t 1.010660333 -s 0 -d -1 -p RTS -e 44 -c 2 -a 0 -i 0 -k MAC 
- -t 1.010660333 -s 0 -d -1 -p RTS -e 44 -c 2 -a 0 -i 0 -k MAC
h -t 1.010660333 -s 0 -d -1 -p RTS -e 44 -c 2 -a 0 -i 0 -k MAC
r -t 1.011012500 -s 1 -d -1 -p RTS -e 44 -c 2 -a 0 -i 0 -k MAC
+ -t 1.011022500 -s 1 -d -1 -p CTS -e 38 -c 2 -a 0 -i 0 -k MAC 
- -t 1.011022500 -s 1 -d -1 -p CTS -e 38 -c 2 -a 0 -i 0 -k MAC
h -t 1.011022500 -s 1 -d -1 -p CTS -e 38 -c 2 -a 0 -i 0 -k MAC
r -t 1.011326667 -s 0 -d -1 -p CTS -e 38 -c 2 -a 0 -i 0 -k MAC
+ -t 1.011336667 -s 0 -d 1 -p tcp -e 1098 -c 2 -a 0 -i 2 -k MAC 
- -t 1.011336667 -s 0 -d 1 -p tcp -e 1098 -c 2 -a 0 -i 2 -k MAC
h -t 1.011336667 -s 0 -d 1 -p tcp -e 1098 -c 2 -a 0 -i 2 -k MAC
r -t 1.020120833 -s 1 -d 1 -p tcp -e 1040 -c 2 -a 0 -i 2 -k MAC
+ -t 1.020130833 -s 1 -d -1 -p ACK -e 38 -c 2 -a 0 -i 0 -k MAC 
- -t 1.020130833 -s 1 -d -1 -p ACK -e 38 -c 2 -a 0 -i 0 -k MAC
h -t 1.020130833 -s 1 -d -1 -p ACK -e 38 -c 2 -a 0 -i 0 -k MAC
+ -t 1.020145833 -s 1 -d 0 -p ack -e 40 -c 2 -a 0 -i 4 -k RTR 
- -t 1.020145833 -s 1 -d 0 -p ack -e 40 -c 2 -a 0 -i 4 -k RTR
h -t 1.020145833 -s 1 -d 0 -p ack -e 40 -c 2 -a 0 -i 4 -k RTR
r -t 1.020435000 -s 0 -d -1 -p ACK -e 38 -c 2 -a 0 -i 0 -k MAC
+ -t 1.020905000 -s 0 -d -1 -p RTS -e 44 -c 2 -a 0 -i 0 -k MAC 
- -t 1.020905000 -s 0 -d -1 -p RTS -e 44 -c 2 -a 0 -i 0 -k MAC
h -t 1.020905000 -s 0 -d -1 -p RTS -e 44 -c 2 -a 0 -i 0 -k MAC
r -t 1.021257167 -s 1 -d -1 -p RTS -e 44 -c 2 -a 0 -i 0 -k MAC
+ -t 1.021267167 -s 1 -d -1 -p CTS -e 38 -c 2 -a 0 -i 0 -k MAC 
- -t 1.021267167 -s 1 -d -1 -p CTS -e 38 -c 2 -a 0 -i 0 -k MAC
h -t 1.021267167 -s 1 -d -1 -p CTS -e 38 -c 2 -a 0 -i 0 -k MAC
r -t 1.021571333 -s 0 -d -1 -p CTS -e 38 -c 2 -a 0 -i 0 -k MAC
+ -t 1.021581333 -s 0 -d 1 -p tcp -e 1098 -c 2 -a 0 -i 3 -k MAC 
- -t 1.021581333 -s 0 -d 1 -p tcp -e 1098 -c 2 -a 0 -i 3 -k MAC
h -t 1.021581333 -s 0 -d 1 -p tcp -e 1098 -c 2 -a 0 -i 3 -k MAC
r -t 1.030365500 -s 1 -d 1 -p tcp -e 1040 -c 2 -a 0 -i 3 -k MAC
+ -t 1.030375500 -s 1 -d -1 -p ACK -e 38 -c 2 -a 0 -i 0 -k MAC 
- -t 1.030375500 -s 1 -d -1 -p ACK -e 38 -c 2 -a 0 -i 0 -k MAC
h -t 1.030375500 -s 1 -d -1 -p ACK -e 38 -c 2 -a 0 -i 0 -k MAC
+ -t 1.030390500 -s 1 -d 0 -p ack -e 40 -c 2 -a 0 -i 5 -k RTR 
- -t 1.030390500 -s 1 -d 0 -p ack -e 40 -c 2 -a 0 -i 5 -k RTR
h -t 1.030390500 -s 1 -d 0 -p ack -e 40 -c 2 -a 0 -i 5 -k RTR
r -t 1.030679667 -s 0 -d -1 -p ACK -e 38 -c 2 -a 0 -i 0 -k MAC
+ -t 1.030869500 -s 1 -d -1 -p RTS -e 44 -c 2 -a 0 -i 0 -k MAC 
- -t 1.030869500 -s 1 -d -1 -p RTS -e 44 -c 2 -a 0 -i 0 -k MAC
h -t 1.030869500 -s 1 -d -1 -p RTS -e 44 -c 2 -a 0 -i 0 -k MAC
r -t 1.031221667 -s 0 -d -1 -p RTS -e 44 -c 2 -a 0 -i 0 -k MAC
+ -t 1.031231667 -s 0 -d -1 -p CTS -e 38 -c 2 -a 0 -i 0 -k MAC 
- -t 1.031231667 -s 0 -d -1 -p CTS -e 38 -c 2 -a 0 -i 0 -k MAC
h -t 1.031231667 -s 0 -d -1 -p CTS -e 38 -c 2 -a 0 -i 0 -k MAC
r -t 1.031535833 -s 1 -d -1 -p CTS -e 38 -c 2 -a 0 -i 0 -k MAC
+ -t 1.031545833 -s 1 -d 0 -p ack -e 98 -c 2 -a 0 -i 4 -k MAC 
- -t 1.031545833 -s 1 -d 0 -p ack -e 98 -c 2 -a 0 -i 4 -k MAC
h -t 1.031545833 -s 1 -d 0 -p ack -e 98 -c 2 -a 0 -i 4 -k MAC
r -t 1.032330000 -s 0 -d 0 -p ack -e 40 -c 2 -a 0 -i 4 -k MAC
+ -t 1.032340000 -s 0 -d -1 -p ACK -e 38 -c 2 -a 0 -i 0 -k MAC 
- -t 1.032340000 -s 0 -d -1 -p ACK -e 38 -c 2 -a 0 -i 0 -k MAC
h -t 1.032340000 -s 0 -d -1 -p ACK -e 38 -c 2 -a 0 -i 0 -k MAC
+ -t 1.032355000 -s 0 -d 1 -p tcp -e 1040 -c 2 -a 0 -i 6 -k RTR 
- -t 1.032355000 -s 0 -d 1 -p tcp -e 1040 -c 2 -a 0 -i 6 -k RTR
h -t 1.032355000 -s 0 -d 1 -p tcp -e 1040 -c 2 -a 0 -i 6 -k RTR
+ -t 1.032355000 -s 0 -d 1 -p tcp -e 1040 -c 2 -a 0 -i 7 -k RTR 
- -t 1.032355000 -s 0 -d 1 -p tcp -e 1040 -c 2 -a 0 -i 7 -k RTR
h -t 1.032355000 -s 0 -d 1 -p tcp -e 1040 -c 2 -a 0 -i 7 -k RTR
r -t 1.032644167 -s 1 -d -1 -p ACK -e 38 -c 2 -a 0 -i 0 -k MAC
+ -t 1.032814000 -s 0 -d -1 -p RTS -e 44 -c 2 -a 0 -i 0 -k MAC 
- -t 1.032814000 -s 0 -d -1 -p RTS -e 44 -c 2 -a 0 -i 0 -k MAC
h -t 1.032814000 -s 0 -d -1 -p RTS -e 44 -c 2 -a 0 -i 0 -k MAC
r -t 1.033166167 -s 1 -d -1 -p RTS -e 44 -c 2 -a 0 -i 0 -k MAC
+ -t 1.033176167 -s 1 -d -1 -p CTS -e 38 -c 2 -a 0 -i 0 -k MAC 
- -t 1.033176167 -s 1 -d -1 -p CTS -e 38 -c 2 -a 0 -i 0 -k MAC
h -t 1.033176167 -s 1 -d -1 -p CTS -e 38 -c 2 -a 0 -i 0 -k MAC
r -t 1.033480333 -s 0 -d -1 -p CTS -e 38 -c 2 -a 0 -i 0 -k MAC
+ -t 1.033490333 -s 0 -d 1 -p tcp -e 1098 -c 2 -a 0 -i 6 -k MAC 
- -t 1.033490333 -s 0 -d 1 -p tcp -e 1098 -c 2 -a 0 -i 6 -k MAC
h -t 1.033490333 -s 0 -d 1 -p tcp -e 1098 -c 2 -a 0 -i 6 -k MAC
r -t 1.042274500 -s 1 -d 1 -p tcp -e 1040 -c 2 -a 0 -i 6 -k MAC
+ -t 1.042284500 -s 1 -d -1 -p ACK -e 38 -c 2 -a 0 -i 0 -k MAC 
- -t 1.042284500 -s 1 -d -1 -p ACK -e 38 -c 2 -a 0 -i 0 -k MAC
h -t 1.042284500 -s 1 -d -1 -p ACK -e 38 -c 2 -a 0 -i 0 -k MAC
+ -t 1.042299500 -s 1 -d 0 -p ack -e 40 -c 2 -a 0 -i 8 -k RTR 
- -t 1.042299500 -s 1 -d 0 -p ack -e 40 -c 2 -a 0 -i 8 -k RTR
h -t 1.042299500 -s 1 -d 0 -p ack -e 40 -c 2 -a 0 -i 8 -k RTR
r -t 1.042588667 -s 0 -d -1 -p ACK -e 38 -c 2 -a 0 -i 0 -k MAC
+ -t 1.042798667 -s 0 -d -1 -p RTS -e 44 -c 2 -a 0 -i 0 -k MAC 
- -t 1.042798667 -s 0 -d -1 -p RTS -e 44 -c 2 -a 0 -i 0 -k MAC
h -t 1.042798667 -s 0 -d -1 -p RTS -e 44 -c 2 -a 0 -i 0 -k MAC
r -t 1.043150833 -s 1 -d -1 -p RTS -e 44 -c 2 -a 0 -i 0 -k MAC
+ -t 1.043160833 -s 1 -d -1 -p CTS -e 38 -c 2 -a 0 -i 0 -k MAC 
- -t 1.043160833 -s 1 -d -1 -p CTS -e 38 -c 2 -a 0 -i 0 -k MAC
h -t 1.043160833 -s 1 -d -1 -p CTS -e 38 -c 2 -a 0 -i 0 -k MAC
r -t 1.043465000 -s 0 -d -1 -p CTS -e 38 -c 2 -a 0 -i 0 -k MAC
+ -t 1.043475000 -s 0 -d 1 -p tcp -e 1098 -c 2 -a 0 -i 7 -k MAC 
- -t 1.043475000 -s 0 -d 1 -p tcp -e 1098 -c 2 -a 0 -i 7 -k MAC
h -t 1.043475000 -s 0 -d 1 -p tcp -e 1098 -c 2 -a 0 -i 7 -k MAC
r -t 1.052259167 -s 1 -d 1 -p tcp -e 1040 -c 2 -a 0 -i 7 -k MAC
+ -t 1.052269167 -s 1 -d -1 -p ACK -e 38 -c 2 -a 0 -i 0 -k MAC 
- -t 1.052269167 -s 1 -d -1 -p ACK -e 38 -c 2 -a 0 -i 0 -k MAC
h -t 1.052269167 -s 1 -d -1 -p ACK -e 38 -c 2 -a 0 -i 0 -k MAC
+ -t 1.052284167 -s 1 -d 0 -p ack -e 40 -c 2 -a 0 -i 9 -k RTR 
- -t 1.052284167 -s 1 -d 0 -p ack -e 40 -c 2 -a 0 -i 9 -k RTR
h -t 1.052284167 -s 1 -d 0 -p ack -e 40 -c 2 -a 0 -i 9 -k RTR
r -t 1.052573333 -s 0 -d -1 -p ACK -e 38 -c 2 -a 0 -i 0 -k MAC
+ -t 1.052943167 -s 1 -d -1 -p RTS -e 44 -c 2 -a 0 -i 0 -k MAC 
- -t 1.052943167 -s 1 -d -1 -p RTS -e 44 -c 2 -a 0 -i 0 -k MAC
h -t 1.052943167 -s 1 -d -1 -p RTS -e 44 -c 2 -a 0 -i 0 -k MAC
r -t 1.053295333 -s 0 -d -1 -p RTS -e 44 -c 2 -a 0 -i 0 -k MAC
+ -t 1.053305333 -s 0 -d -1 -p CTS -e 38 -c 2 -a 0 -i 0 -k MAC 
- -t 1.053305333 -s 0 -d -1 -p CTS -e 38 -c 2 -a 0 -i 0 -k MAC
h -t 1.053305333 -s 0 -d -1 -p CTS -e 38 -c 2 -a 0 -i 0 -k MAC
r -t 1.053609500 -s 1 -d -1 -p CTS -e 38 -c 2 -a 0 -i 0 -k MAC
+ -t 1.053619500 -s 1 -d 0 -p ack -e 98 -c 2 -a 0 -i 5 -k MAC 
- -t 1.053619500 -s 1 -d 0 -p ack -e 98 -c 2 -a 0 -i 5 -k MAC
h -t 1.053619500 -s 1 -d 0 -p ack -e 98 -c 2 -a 0 -i 5 -k MAC
r -t 1.054403667 -s 0 -d 0 -p ack -e 40 -c 2 -a 0 -i 5 -k MAC
+ -t 1.054413667 -s 0 -d -1 -p ACK -e 38 -c 2 -a 0 -i 0 -k MAC 
- -t 1.054413667 -s 0 -d -1 -p ACK -e 38 -c 2 -a 0 -i 0 -k MAC
h -t 1.054413667 -s 0 -d -1 -p ACK -e 38 -c 2 -a 0 -i 0 -k MAC
+ -t 1.054428667 -s 0 -d 1 -p tcp -e 1040 -c 2 -a 0 -i 10 -k RTR 
- -t 1.054428667 -s 0 -d 1 -p tcp -e 1040 -c 2 -a 0 -i 10 -k RTR
h -t 1.054428667 -s 0 -d 1 -p tcp -e 1040 -c 2 -a 0 -i 10 -k RTR
+ -t 1.054428667 -s 0 -d 1 -p tcp -e 1040 -c 2 -a 0 -i 11 -k RTR 
- -t 1.054428667 -s 0 -d 1 -p tcp -e 1040 -c 2 -a 0 -i 11 -k RTR
h -t 1.054428667 -s 0 -d 1 -p tcp -e 1040 -c 2 -a 0 -i 11 -k RTR
r -t 1.054717833 -s 1 -d -1 -p ACK -e 38 -c 2 -a 0 -i 0 -k MAC
+ -t 1.055007667 -s 0 -d -1 -p RTS -e 44 -c 2 -a 0 -i 0 -k MAC 
- -t 1.055007667 -s 0 -d -1 -p RTS -e 44 -c 2 -a 0 -i 0 -k MAC
h -t 1.055007667 -s 0 -d -1 -p RTS -e 44 -c 2 -a 0 -i 0 -k MAC
r -t 1.055359833 -s 1 -d -1 -p RTS -e 44 -c 2 -a 0 -i 0 -k MAC
+ -t 1.055369833 -s 1 -d -1 -p CTS -e 38 -c 2 -a 0 -i 0 -k MAC 
- -t 1.055369833 -s 1 -d -1 -p CTS -e 38 -c 2 -a 0 -i 0 -k MAC
h -t 1.055369833 -s 1 -d -1 -p CTS -e 38 -c 2 -a 0 -i 0 -k MAC
r -t 1.055674000 -s 0 -d -1 -p CTS -e 38 -c 2 -a 0 -i 0 -k MAC
+ -t 1.055684000 -s 0 -d 1 -p tcp -e 1098 -c 2 -a 0 -i 10 -k MAC 
- -t 1.055684000 -s 0 -d 1 -p tcp -e 1098 -c 2 -a 0 -i 10 -k MAC
h -t 1.055684000 -s 0 -d 1 -p tcp -e 1098 -c 2 -a 0 -i 10 -k MAC
r -t 1.064468167 -s 1 -d 1 -p tcp -e 1040 -c 2 -a 0 -i 10 -k MAC
+ -t 1.064478167 -s 1 -d -1 -p ACK -e 38 -c 2 -a 0 -i 0 -k MAC 
- -t 1.064478167 -s 1 -d -1 -p ACK -e 38 -c 2 -a 0 -i 0 -k MAC
h -t 1.064478167 -s 1 -d -1 -p ACK -e 38 -c 2 -a 0 -i 0 -k MAC
+ -t 1.064493167 -s 1 -d 0 -p ack -e 40 -c 2 -a 0 -i 12 -k RTR 
- -t 1.064493167 -s 1 -d 0 -p ack -e 40 -c 2 -a 0 -i 12 -k RTR
h -t 1.064493167 -s 1 -d 0 -p ack -e 40 -c 2 -a 0 -i 12 -k RTR
r -t 1.064782333 -s 0 -d -1 -p ACK -e 38 -c 2 -a 0 -i 0 -k MAC
+ -t 1.065052167 -s 1 -d -1 -p RTS -e 44 -c 2 -a 0 -i 0 -k MAC 
- -t 1.065052167 -s 1 -d -1 -p RTS -e 44 -c 2 -a 0 -i 0 -k MAC
h -t 1.065052167 -s 1 -d -1 -p RTS -e 44 -c 2 -a 0 -i 0 -k MAC
r -t 1.065404333 -s 0 -d -1 -p RTS -e 44 -c 2 -a 0 -i 0 -k MAC
+ -t 1.065414333 -s 0 -d -1 -p CTS -e 38 -c 2 -a 0 -i 0 -k MAC 
- -t 1.065414333 -s 0 -d -1 -p CTS -e 38 -c 2 -a 0 -i 0 -k MAC
h -t 1.065414333 -s 0 -d -1 -p CTS -e 38 -c 2 -a 0 -i 0 -k MAC
r -t 1.065718500 -s 1 -d -1 -p CTS -e 38 -c 2 -a 0 -i 0 -k MAC
+ -t 1.065728500 -s 1 -d 0 -p ack -e 98 -c 2 -a 0 -i 8 -k MAC 
- -t 1.065728500 -s 1 -d 0 -p ack -e 98 -c 2 -a 0 -i 8 -k MAC
h -t 1.065728500 -s 1 -d 0 -p ack -e 98 -c 2 -a 0 -i 8 -k MAC
r -t 1.066512667 -s 0 -d 0 -p ack -e 40 -c 2 -a 0 -i 8 -k MAC
+ -t 1.066522667 -s 0 -d -1 -p ACK -e 38 -c 2 -a 0 -i 0 -k MAC 
- -t 1.066522667 -s 0 -d -1 -p ACK -e 38 -c 2 -a 0 -i 0 -k MAC
h -t 1.066522667 -s 0 -d -1 -p ACK -e 38 -c 2 -a 0 -i 0 -k MAC
+ -t 1.066537667 -s 0 -d 1 -p tcp -e 1040 -c 2 -a 0 -i 13 -k RTR 
- -t 1.066537667 -s 0 -d 1 -p tcp -e 1040 -c 2 -a 0 -i 13 -k RTR
h -t 1.066537667 -s 0 -d 1 -p tcp -e 1040 -c 2 -a 0 -i 13 -k RTR
+ -t 1.066537667 -s 0 -d 1 -p tcp -e 1040 -c 2 -a 0 -i 14 -k RTR 
- -t 1.066537667 -s 0 -d 1 -p tcp -e 1040 -c 2 -a 0 -i 14 -k RTR
h -t 1.066537667 -s 0 -d 1 -p tcp -e 1040 -c 2 -a 0 -i 14 -k RTR
r -t 1.066826833 -s 1 -d -1 -p ACK -e 38 -c 2 -a 0 -i 0 -k MAC
+ -t 1.067116833 -s 1 -d -1 -p RTS -e 44 -c 2 -a 0 -i 0 -k MAC 
- -t 1.067116833 -s 1 -d -1 -p RTS -e 44 -c 2 -a 0 -i 0 -k MAC
h -t 1.067116833 -s 1 -d -1 -p RTS -e 44 -c 2 -a 0 -i 0 -k MAC
r -t 1.067469000 -s 0 -d -1 -p RTS -e 44 -c 2 -a 0 -i 0 -k MAC
+ -t 1.067479000 -s 0 -d -1 -p CTS -e 38 -c 2 -a 0 -i 0 -k MAC 
- -t 1.067479000 -s 0 -d -1 -p CTS -e 38 -c 2 -a 0 -i 0 -k MAC
h -t 1.067479000 -s 0 -d -1 -p CTS -e 38 -c 2 -a 0 -i 0 -k MAC
r -t 1.067783167 -s 1 -d -1 -p CTS -e 38 -c 2 -a 0 -i 0 -k MAC
+ -t 1.067793167 -s 1 -d 0 -p ack -e 98 -c 2 -a 0 -i 9 -k MAC 
- -t 1.067793167 -s 1 -d 0 -p ack -e 98 -c 2 -a 0 -i 9 -k MAC
h -t 1.067793167 -s 1 -d 0 -p ack -e 98 -c 2 -a 0 -i 9 -k MAC
r -t 1.068577333 -s 0 -d 0 -p ack -e 40 -c 2 -a 0 -i 9 -k MAC
+ -t 1.068587333 -s 0 -d -1 -p ACK -e 38 -c 2 -a 0 -i 0 -k MAC 
- -t 1.068587333 -s 0 -d -1 -p ACK -e 38 -c 2 -a 0 -i 0 -k MAC
h -t 1.068587333 -s 0 -d -1 -p ACK -e 38 -c 2 -a 0 -i 0 -k MAC
+ -t 1.068602333 -s 0 -d 1 -p tcp -e 1040 -c 2 -a 0 -i 15 -k RTR 
- -t 1.068602333 -s 0 -d 1 -p tcp -e 1040 -c 2 -a 0 -i 15 -k RTR
h -t 1.068602333 -s 0 -d 1 -p tcp -e 1040 -c 2 -a 0 -i 15 -k RTR
+ -t 1.068602333 -s 0 -d 1 -p tcp -e 1040 -c 2 -a 0 -i 16 -k RTR 
- -t 1.068602333 -s 0 -d 1 -p tcp -e 1040 -c 2 -a 0 -i 16 -k RTR
h -t 1.068602333 -s 0 -d 1 -p tcp -e 1040 -c 2 -a 0 -i 16 -k RTR
r -t 1.068891500 -s 1 -d -1 -p ACK -e 38 -c 2 -a 0 -i 0 -k MAC
+ -t 1.068941500 -s 1 -d -1 -p RTS -e 44 -c 2 -a 0 -i 0 -k MAC 
- -t 1.068941500 -s 1 -d -1 -p RTS -e 44 -c 2 -a 0 -i 0 -k MAC
h -t 1.068941500 -s 1 -d -1 -p RTS -e 44 -c 2 -a 0 -i 0 -k MAC
r -t 1.069293667 -s 0 -d -1 -p RTS -e 44 -c 2 -a 0 -i 0 -k MAC
+ -t 1.069303667 -s 0 -d -1 -p CTS -e 38 -c 2 -a 0 -i 0 -k MAC 
- -t 1.069303667 -s 0 -d -1 -p CTS -e 38 -c 2 -a 0 -i 0 -k MAC
h -t 1.069303667 -s 0 -d -1 -p CTS -e 38 -c 2 -a 0 -i 0 -k MAC
r -t 1.069607833 -s 1 -d -1 -p CTS -e 38 -c 2 -a 0 -i 0 -k MAC
+ -t 1.069617833 -s 1 -d 0 -p ack -e 98 -c 2 -a 0 -i 12 -k MAC 
- -t 1.069617833 -s 1 -d 0 -p ack -e 98 -c 2 -a 0 -i 12 -k MAC
h -t 1.069617833 -s 1 -d 0 -p ack -e 98 -c 2 -a 0 -i 12 -k MAC
r -t 1.070402000 -s 0 -d 0 -p ack -e 40 -c 2 -a 0 -i 12 -k MAC
+ -t 1.070412000 -s 0 -d -1 -p ACK -e 38 -c 2 -a 0 -i 0 -k MAC 
- -t 1.070412000 -s 0 -d -1 -p ACK -e 38 -c 2 -a 0 -i 0 -k MAC
h -t 1.070412000 -s 0 -d -1 -p ACK -e 38 -c 2 -a 0 -i 0 -k MAC
+ -t 1.070427000 -s 0 -d 1 -p tcp -e 1040 -c 2 -a 0 -i 17 -k RTR 
- -t 1.070427000 -s 0 -d 1 -p tcp -e 1040 -c 2 -a 0 -i 17 -k RTR
h -t 1.070427000 -s 0 -d 1 -p tcp -e 1040 -c 2 -a 0 -i 17 -k RTR
+ -t 1.070427000 -s 0 -d 1 -p tcp -e 1040 -c 2 -a 0 -i 18 -k RTR 
- -t 1.070427000 -s 0 -d 1 -p tcp -e 1040 -c 2 -a 0 -i 18 -k RTR
h -t 1.070427000 -s 0 -d 1 -p tcp -e 1040 -c 2 -a 0 -i 18 -k RTR
r -t 1.070716167 -s 1 -d -1 -p ACK -e 38 -c 2 -a 0 -i 0 -k MAC
+ -t 1.070826000 -s 0 -d -1 -p RTS -e 44 -c 2 -a 0 -i 0 -k MAC 
- -t 1.070826000 -s 0 -d -1 -p RTS -e 44 -c 2 -a 0 -i 0 -k MAC
h -t 1.070826000 -s 0 -d -1 -p RTS -e 44 -c 2 -a 0 -i 0 -k MAC
r -t 1.071178167 -s 1 -d -1 -p RTS -e 44 -c 2 -a 0 -i 0 -k MAC
+ -t 1.071188167 -s 1 -d -1 -p CTS -e 38 -c 2 -a 0 -i 0 -k MAC 
- -t 1.071188167 -s 1 -d -1 -p CTS -e 38 -c 2 -a 0 -i 0 -k MAC
h -t 1.071188167 -s 1 -d -1 -p CTS -e 38 -c 2 -a 0 -i 0 -k MAC
r -t 1.071492333 -s 0 -d -1 -p CTS -e 38 -c 2 -a 0 -i 0 -k MAC
+ -t 1.071502333 -s 0 -d 1 -p tcp -e 1098 -c 2 -a 0 -i 11 -k MAC 
- -t 1.071502333 -s 0 -d 1 -p tcp -e 1098 -c 2 -a 0 -i 11 -k MAC
h -t 1.071502333 -s 0 -d 1 -p tcp -e 1098 -c 2 -a 0 -i 11 -k MAC
r -t 1.080286500 -s 1 -d 1 -p tcp -e 1040 -c 2 -a 0 -i 11 -k MAC
+ -t 1.080296500 -s 1 -d -1 -p ACK -e 38 -c 2 -a 0 -i 0 -k MAC 
- -t 1.080296500 -s 1 -d -1 -p ACK -e 38 -c 2 -a 0 -i 0 -k MAC
h -t 1.080296500 -s 1 -d -1 -p ACK -e 38 -c 2 -a 0 -i 0 -k MAC
+ -t 1.080311500 -s 1 -d 0 -p ack -e 40 -c 2 -a 0 -i 19 -k RTR 
- -t 1.080311500 -s 1 -d 0 -p ack -e 40 -c 2 -a 0 -i 19 -k RTR
h -t 1.080311500 -s 1 -d 0 -p ack -e 40 -c 2 -a 0 -i 19 -k RTR
r -t 1.080600667 -s 0 -d -1 -p ACK -e 38 -c 2 -a 0 -i 0 -k MAC
+ -t 1.080750500 -s 1 -d -1 -p RTS -e 44 -c 2 -a 0 -i 0 -k MAC 
- -t 1.080750500 -s 1 -d -1 -p RTS -e 44 -c 2 -a 0 -i 0 -k MAC
h -t 1.080750500 -s 1 -d -1 -p RTS -e 44 -c 2 -a 0 -i 0 -k MAC
r -t 1.081102667 -s 0 -d -1 -p RTS -e 44 -c 2 -a 0 -i 0 -k MAC
+ -t 1.081112667 -s 0 -d -1 -p CTS -e 38 -c 2 -a 0 -i 0 -k MAC 
- -t 1.081112667 -s 0 -d -1 -p CTS -e 38 -c 2 -a 0 -i 0 -k MAC
h -t 1.081112667 -s 0 -d -1 -p CTS -e 38 -c 2 -a 0 -i 0 -k MAC
r -t 1.081416833 -s 1 -d -1 -p CTS -e 38 -c 2 -a 0 -i 0 -k MAC
+ -t 1.081426833 -s 1 -d 0 -p ack -e 98 -c 2 -a 0 -i 19 -k MAC 
- -t 1.081426833 -s 1 -d 0 -p ack -e 98 -c 2 -a 0 -i 19 -k MAC
h -t 1.081426833 -s 1 -d 0 -p ack -e 98 -c 2 -a 0 -i 19 -k MAC
r -t 1.082211000 -s 0 -d 0 -p ack -e 40 -c 2 -a 0 -i 19 -k MAC
+ -t 1.082221000 -s 0 -d -1 -p ACK -e 38 -c 2 -a 0 -i 0 -k MAC 
- -t 1.082221000 -s 0 -d -1 -p ACK -e 38 -c 2 -a 0 -i 0 -k MAC
h -t 1.082221000 -s 0 -d -1 -p ACK -e 38 -c 2 -a 0 -i 0 -k MAC
+ -t 1.082236000 -s 0 -d 1 -p tcp -e 1040 -c 2 -a 0 -i 20 -k RTR 
- -t 1.082236000 -s 0 -d 1 -p tcp -e 1040 -c 2 -a 0 -i 20 -k RTR
h -t 1.082236000 -s 0 -d 1 -p tcp -e 1040 -c 2 -a 0 -i 20 -k RTR
+ -t 1.082236000 -s 0 -d 1 -p tcp -e 1040 -c 2 -a 0 -i 21 -k RTR 
- -t 1.082236000 -s 0 -d 1 -p tcp -e 1040 -c 2 -a 0 -i 21 -k RTR
h -t 1.082236000 -s 0 -d 1 -p tcp -e 1040 -c 2 -a 0 -i 21 -k RTR
r -t 1.082525167 -s 1 -d -1 -p ACK -e 38 -c 2 -a 0 -i 0 -k MAC
+ -t 1.083035000 -s 0 -d -1 -p RTS -e 44 -c 2 -a 0 -i 0 -k MAC 
- -t 1.083035000 -s 0 -d -1 -p RTS -e 44 -c 2 -a 0 -i 0 -k MAC
h -t 1.083035000 -s 0 -d -1 -p RTS -e 44 -c 2 -a 0 -i 0 -k MAC
r -t 1.083387167 -s 1 -d -1 -p RTS -e 44 -c 2 -a 0 -i 0 -k MAC
+ -t 1.083397167 -s 1 -d -1 -p CTS -e 38 -c 2 -a 0 -i 0 -k MAC 
- -t 1.083397167 -s 1 -d -1 -p CTS -e 38 -c 2 -a 0 -i 0 -k MAC
h -t 1.083397167 -s 1 -d -1 -p CTS -e 38 -c 2 -a 0 -i 0 -k MAC
r -t 1.083701333 -s 0 -d -1 -p CTS -e 38 -c 2 -a 0 -i 0 -k MAC
+ -t 1.083711333 -s 0 -d 1 -p tcp -e 1098 -c 2 -a 0 -i 13 -k MAC 
- -t 1.083711333 -s 0 -d 1 -p tcp -e 1098 -c 2 -a 0 -i 13 -k MAC
h -t 1.083711333 -s 0 -d 1 -p tcp -e 1098 -c 2 -a 0 -i 13 -k MAC
r -t 1.092495500 -s 1 -d 1 -p tcp -e 1040 -c 2 -a 0 -i 13 -k MAC
+ -t 1.092505500 -s 1 -d -1 -p ACK -e 38 -c 2 -a 0 -i 0 -k MAC 
- -t 1.092505500 -s 1 -d -1 -p ACK -e 38 -c 2 -a 0 -i 0 -k MAC
h -t 1.092505500 -s 1 -d -1 -p ACK -e 38 -c 2 -a 0 -i 0 -k MAC
+ -t 1.092520500 -s 1 -d 0 -p ack -e 40 -c 2 -a 0 -i 22 -k RTR 
- -t 1.092520500 -s 1 -d 0 -p ack -e 40 -c 2 -a 0 -i 22 -k RTR
h -t 1.092520500 -s 1 -d 0 -p ack -e 40 -c 2 -a 0 -i 22 -k RTR
r -t 1.092809667 -s 0 -d -1 -p ACK -e 38 -c 2 -a 0 -i 0 -k MAC
+ -t 1.092999500 -s 1 -d -1 -p RTS -e 44 -c 2 -a 0 -i 0 -k MAC 
- -t 1.092999500 -s 1 -d -1 -p RTS -e 44 -c 2 -a 0 -i 0 -k MAC
h -t 1.092999500 -s 1 -d -1 -p RTS -e 44 -c 2 -a 0 -i 0 -k MAC
r -t 1.093351667 -s 0 -d -1 -p RTS -e 44 -c 2 -a 0 -i 0 -k MAC
+ -t 1.093361667 -s 0 -d -1 -p CTS -e 38 -c 2 -a 0 -i 0 -k MAC 
- -t 1.093361667 -s 0 -d -1 -p CTS -e 38 -c 2 -a 0 -i 0 -k MAC
h -t 1.093361667 -s 0 -d -1 -p CTS -e 38 -c 2 -a 0 -i 0 -k MAC
r -t 1.093665833 -s 1 -d -1 -p CTS -e 38 -c 2 -a 0 -i 0 -k MAC
+ -t 1.093675833 -s 1 -d 0 -p ack -e 98 -c 2 -a 0 -i 22 -k MAC 
- -t 1.093675833 -s 1 -d 0 -p ack -e 98 -c 2 -a 0 -i 22 -k MAC
h -t 1.093675833 -s 1 -d 0 -p ack -e 98 -c 2 -a 0 -i 22 -k MAC
r -t 1.094460000 -s 0 -d 0 -p ack -e 40 -c 2 -a 0 -i 22 -k MAC
+ -t 1.094470000 -s 0 -d -1 -p ACK -e 38 -c 2 -a 0 -i 0 -k MAC 
- -t 1.094470000 -s 0 -d -1 -p ACK -e 38 -c 2 -a 0 -i 0 -k MAC
h -t 1.094470000 -s 0 -d -1 -p ACK -e 38 -c 2 -a 0 -i 0 -k MAC
+ -t 1.094485000 -s 0 -d 1 -p tcp -e 1040 -c 2 -a 0 -i 23 -k RTR 
- -t 1.094485000 -s 0 -d 1 -p tcp -e 1040 -c 2 -a 0 -i 23 -k RTR
h -t 1.094485000 -s 0 -d 1 -p tcp -e 1040 -c 2 -a 0 -i 23 -k RTR
+ -t 1.094485000 -s 0 -d 1 -p tcp -e 1040 -c 2 -a 0 -i 24 -k RTR 
- -t 1.094485000 -s 0 -d 1 -p tcp -e 1040 -c 2 -a 0 -i 24 -k RTR
h -t 1.094485000 -s 0 -d 1 -p tcp -e 1040 -c 2 -a 0 -i 24 -k RTR
r -t 1.094774167 -s 1 -d -1 -p ACK -e 38 -c 2 -a 0 -i 0 -k MAC
+ -t 1.095244000 -s 0 -d -1 -p RTS -e 44 -c 2 -a 0 -i 0 -k MAC 
- -t 1.095244000 -s 0 -d -1 -p RTS -e 44 -c 2 -a 0 -i 0 -k MAC
h -t 1.095244000 -s 0 -d -1 -p RTS -e 44 -c 2 -a 0 -i 0 -k MAC
r -t 1.095596167 -s 1 -d -1 -p RTS -e 44 -c 2 -a 0 -i 0 -k MAC
+ -t 1.095606167 -s 1 -d -1 -p CTS -e 38 -c 2 -a 0 -i 0 -k MAC 
- -t 1.095606167 -s 1 -d -1 -p CTS -e 38 -c 2 -a 0 -i 0 -k MAC
h -t 1.095606167 -s 1 -d -1 -p CTS -e 38 -c 2 -a 0 -i 0 -k MAC
r -t 1.095910333 -s 0 -d -1 -p CTS -e 38 -c 2 -a 0 -i 0 -k MAC
+ -t 1.095920333 -s 0 -d 1 -p tcp -e 1098 -c 2 -a 0 -i 14 -k MAC 
- -t 1.095920333 -s 0 -d 1 -p tcp -e 1098 -c 2 -a 0 -i 14 -k MAC
h -t 1.095920333 -s 0 -d 1 -p tcp -e 1098 -c 2 -a 0 -i 14 -k MAC
r -t 1.104704500 -s 1 -d 1 -p tcp -e 1040 -c 2 -a 0 -i 14 -k MAC
+ -t 1.104714500 -s 1 -d -1 -p ACK -e 38 -c 2 -a 0 -i 0 -k MAC 
- -t 1.104714500 -s 1 -d -1 -p ACK -e 38 -c 2 -a 0 -i 0 -k MAC
h -t 1.104714500 -s 1 -d -1 -p ACK -e 38 -c 2 -a 0 -i 0 -k MAC
+ -t 1.104729500 -s 1 -d 0 -p ack -e 40 -c 2 -a 0 -i 25 -k RTR 
- -t 1.104729500 -s 1 -d 0 -p ack -e 40 -c 2 -a 0 -i 25 -k RTR
h -t 1.104729500 -s 1 -d 0 -p ack -e 40 -c 2 -a 0 -i 25 -k RTR
r -t 1.105018667 -s 0 -d -1 -p ACK -e 38 -c 2 -a 0 -i 0 -k MAC
+ -t 1.105088667 -s 0 -d -1 -p RTS -e 44 -c 2 -a 0 -i 0 -k MAC 
- -t 1.105088667 -s 0 -d -1 -p RTS -e 44 -c 2 -a 0 -i 0 -k MAC
h -t 1.105088667 -s 0 -d -1 -p RTS -e 44 -c 2 -a 0 -i 0 -k MAC
r -t 1.105440833 -s 1 -d -1 -p RTS -e 44 -c 2 -a 0 -i 0 -k MAC
+ -t 1.105450833 -s 1 -d -1 -p CTS -e 38 -c 2 -a 0 -i 0 -k MAC 
- -t 1.105450833 -s 1 -d -1 -p CTS -e 38 -c 2 -a 0 -i 0 -k MAC
h -t 1.105450833 -s 1 -d -1 -p CTS -e 38 -c 2 -a 0 -i 0 -k MAC
r -t 1.105755000 -s 0 -d -1 -p CTS -e 38 -c 2 -a 0 -i 0 -k MAC
+ -t 1.105765000 -s 0 -d 1 -p tcp -e 1098 -c 2 -a 0 -i 15 -k MAC 
- -t 1.105765000 -s 0 -d 1 -p tcp -e 1098 -c 2 -a 0 -i 15 -k MAC
h -t 1.105765000 -s 0 -d 1 -p tcp -e 1098 -c 2 -a 0 -i 15 -k MAC
r -t 1.114549167 -s 1 -d 1 -p tcp -e 1040 -c 2 -a 0 -i 15 -k MAC
+ -t 1.114559167 -s 1 -d -1 -p ACK -e 38 -c 2 -a 0 -i 0 -k MAC 
- -t 1.114559167 -s 1 -d -1 -p ACK -e 38 -c 2 -a 0 -i 0 -k MAC
h -t 1.114559167 -s 1 -d -1 -p ACK -e 38 -c 2 -a 0 -i 0 -k MAC
+ -t 1.114574167 -s 1 -d 0 -p ack -e 40 -c 2 -a 0 -i 26 -k RTR 
- -t 1.114574167 -s 1 -d 0 -p ack -e 40 -c 2 -a 0 -i 26 -k RTR
h -t 1.114574167 -s 1 -d 0 -p ack -e 40 -c 2 -a 0 -i 26 -k RTR
r -t 1.114863333 -s 0 -d -1 -p ACK -e 38 -c 2 -a 0 -i 0 -k MAC
+ -t 1.114953333 -s 0 -d -1 -p RTS -e 44 -c 2 -a 0 -i 0 -k MAC 
- -t 1.114953333 -s 0 -d -1 -p RTS -e 44 -c 2 -a 0 -i 0 -k MAC
h -t 1.114953333 -s 0 -d -1 -p RTS -e 44 -c 2 -a 0 -i 0 -k MAC
r -t 1.115305500 -s 1 -d -1 -p RTS -e 44 -c 2 -a 0 -i 0 -k MAC
+ -t 1.115315500 -s 1 -d -1 -p CTS -e 38 -c 2 -a 0 -i 0 -k MAC 
- -t 1.115315500 -s 1 -d -1 -p CTS -e 38 -c 2 -a 0 -i 0 -k MAC
h -t 1.115315500 -s 1 -d -1 -p CTS -e 38 -c 2 -a 0 -i 0 -k MAC
r -t 1.115619667 -s 0 -d -1 -p CTS -e 38 -c 2 -a 0 -i 0 -k MAC
+ -t 1.115629667 -s 0 -d 1 -p tcp -e 1098 -c 2 -a 0 -i 16 -k MAC 
- -t 1.115629667 -s 0 -d 1 -p tcp -e 1098 -c 2 -a 0 -i 16 -k MAC
h -t 1.115629667 -s 0 -d 1 -p tcp -e 1098 -c 2 -a 0 -i 16 -k MAC
r -t 1.124413833 -s 1 -d 1 -p tcp -e 1040 -c 2 -a 0 -i 16 -k MAC
+ -t 1.124423833 -s 1 -d -1 -p ACK -e 38 -c 2 -a 0 -i 0 -k MAC 
- -t 1.124423833 -s 1 -d -1 -p ACK -e 38 -c 2 -a 0 -i 0 -k MAC
h -t 1.124423833 -s 1 -d -1 -p ACK -e 38 -c 2 -a 0 -i 0 -k MAC
+ -t 1.124438833 -s 1 -d 0 -p ack -e 40 -c 2 -a 0 -i 27 -k RTR 
- -t 1.124438833 -s 1 -d 0 -p ack -e 40 -c 2 -a 0 -i 27 -k RTR
h -t 1.124438833 -s 1 -d 0 -p ack -e 40 -c 2 -a 0 -i 27 -k RTR
r -t 1.124728000 -s 0 -d -1 -p ACK -e 38 -c 2 -a 0 -i 0 -k MAC
+ -t 1.124877833 -s 1 -d -1 -p RTS -e 44 -c 2 -a 0 -i 0 -k MAC 
- -t 1.124877833 -s 1 -d -1 -p RTS -e 44 -c 2 -a 0 -i 0 -k MAC
h -t 1.124877833 -s 1 -d -1 -p RTS -e 44 -c 2 -a 0 -i 0 -k MAC
r -t 1.125230000 -s 0 -d -1 -p RTS -e 44 -c 2 -a 0 -i 0 -k MAC
+ -t 1.125240000 -s 0 -d -1 -p CTS -e 38 -c 2 -a 0 -i 0 -k MAC 
- -t 1.125240000 -s 0 -d -1 -p CTS -e 38 -c 2 -a 0 -i 0 -k MAC
h -t 1.125240000 -s 0 -d -1 -p CTS -e 38 -c 2 -a 0 -i 0 -k MAC
r -t 1.125544167 -s 1 -d -1 -p CTS -e 38 -c 2 -a 0 -i 0 -k MAC
+ -t 1.125554167 -s 1 -d 0 -p ack -e 98 -c 2 -a 0 -i 25 -k MAC 
- -t 1.125554167 -s 1 -d 0 -p ack -e 98 -c 2 -a 0 -i 25 -k MAC
h -t 1.125554167 -s 1 -d 0 -p ack -e 98 -c 2 -a 0 -i 25 -k MAC
r -t 1.126338333 -s 0 -d 0 -p ack -e 40 -c 2 -a 0 -i 25 -k MAC
+ -t 1.126348333 -s 0 -d -1 -p ACK -e 38 -c 2 -a 0 -i 0 -k MAC 
- -t 1.126348333 -s 0 -d -1 -p ACK -e 38 -c 2 -a 0 -i 0 -k MAC
h -t 1.126348333 -s 0 -d -1 -p ACK -e 38 -c 2 -a 0 -i 0 -k MAC
+ -t 1.126363333 -s 0 -d 1 -p tcp -e 1040 -c 2 -a 0 -i 28 -k RTR 
- -t 1.126363333 -s 0 -d 1 -p tcp -e 1040 -c 2 -a 0 -i 28 -k RTR
h -t 1.126363333 -s 0 -d 1 -p tcp -e 1040 -c 2 -a 0 -i 28 -k RTR
+ -t 1.126363333 -s 0 -d 1 -p tcp -e 1040 -c 2 -a 0 -i 29 -k RTR 
- -t 1.126363333 -s 0 -d 1 -p tcp -e 1040 -c 2 -a 0 -i 29 -k RTR
h -t 1.126363333 -s 0 -d 1 -p tcp -e 1040 -c 2 -a 0 -i 29 -k RTR
r -t 1.126652500 -s 1 -d -1 -p ACK -e 38 -c 2 -a 0 -i 0 -k MAC
+ -t 1.127142500 -s 1 -d -1 -p RTS -e 44 -c 2 -a 0 -i 0 -k MAC 
- -t 1.127142500 -s 1 -d -1 -p RTS -e 44 -c 2 -a 0 -i 0 -k MAC
h -t 1.127142500 -s 1 -d -1 -p RTS -e 44 -c 2 -a 0 -i 0 -k MAC
r -t 1.127494667 -s 0 -d -1 -p RTS -e 44 -c 2 -a 0 -i 0 -k MAC
+ -t 1.127504667 -s 0 -d -1 -p CTS -e 38 -c 2 -a 0 -i 0 -k MAC 
- -t 1.127504667 -s 0 -d -1 -p CTS -e 38 -c 2 -a 0 -i 0 -k MAC