n -t * -s 0  -x 0 -y 0 -Z 0 -z 30  -v circle -c black
n -t * -s 1  -x 0 -y 0 -Z 0 -z 30  -v circle -c black
n -t * -s 2  -x 0 -y 0 -Z 0 -z 30  -v circle -c black
n -t * -s 3  -x 0 -y 0 -Z 0 -z 30  -v circle -c black
n -t * -s 4  -x 0 -y 0 -Z 0 -z 30  -v circle -c black
n -t * -s 5  -x 0 -y 0 -Z 0 -z 30  -v circle -c black
n -t * -s 6  -x 0 -y 0 -Z 0 -z 30  -v circle -c black
n -t * -s 7  -x 0 -y 0 -Z 0 -z 30  -v circle -c black
V -t * -v 1.0a5 -a 0
W -t * -x 1200 -y 1200
A -t * -n 1 -p 0 -o 0x7fffffff -c 30 -a 1
A -t * -h 1 -m 1073741823 -s 0
c -t * -i 4 -n brown
c -t * -i 0 -n blue
c -t * -i 5 -n tan
c -t * -i 1 -n red
c -t * -i 6 -n gold
c -t * -i 2 -n chocolate
c -t * -i 7 -n black
c -t * -i 3 -n red
n -t 0.000000 -s 0 -x 100.000000 -y 300.000000 -U 0.000000 -V 0.000000 -T 0.000000
n -t 0.000000 -s 1 -x 200.000000 -y 300.000000 -U 0.000000 -V 0.000000 -T 0.000000
n -t 0.000000 -s 2 -x 300.000000 -y 300.000000 -U 0.000000 -V 0.000000 -T 0.000000
n -t 0.000000 -s 3 -x 400.000000 -y 300.000000 -U 0.000000 -V 0.000000 -T 0.000000
n -t 0.000000 -s 4 -x 500.000000 -y 300.000000 -U 0.000000 -V 0.000000 -T 0.000000
n -t 0.000000 -s 6 -x 600.000000 -y 300.000000 -U 0.000000 -V 0.000000 -T 0.000000
n -t 0.000000 -s 7 -x 700.000000 -y 300.000000 -U 0.000000 -V 0.000000 -T 0.000000
n -t 0.000000 -s 5 -x 100.000000 -y 200.000000 -U 0.000000 -V 0.000000 -T 0.000000
n -t 0.000000 -s 5 -x 100.000000 -y 200.000000 -U 60.000000 -V 0.000000 -T 10.000000
+ -t 0.000000000 -s 0 -d -1 -p AODV -e 48 -c 2 -a 0 -i 0 -k RTR 
- -t 0.000000000 -s 0 -d -1 -p AODV -e 48 -c 2 -a 0 -i 0 -k RTR
h -t 0.000000000 -s 0 -d -1 -p AODV -e 48 -c 2 -a 0 -i 0 -k RTR
+ -t 0.000575000 -s 0 -d -1 -p AODV -e 106 -c 2 -a 0 -i 0 -k MAC 
- -t 0.000575000 -s 0 -d -1 -p AODV -e 106 -c 2 -a 0 -i 0 -k MAC
h -t 0.000575000 -s 0 -d -1 -p AODV -e 106 -c 2 -a 0 -i 0 -k MAC
r -t 0.001423333 -s 1 -d -1 -p AODV -e 48 -c 2 -a 0 -i 0 -k MAC
r -t 0.001423333 -s 5 -d -1 -p AODV -e 48 -c 2 -a 0 -i 0 -k MAC
r -t 0.001423667 -s 2 -d -1 -p AODV -e 48 -c 2 -a 0 -i 0 -k MAC
r -t 0.001448333 -s 1 -d -1 -p AODV -e 48 -c 2 -a 0 -i 0 -k RTR
r -t 0.001448333 -s 5 -d -1 -p AODV -e 48 -c 2 -a 0 -i 0 -k RTR
+ -t 0.001448333 -s 5 -d 0 -p AODV -e 44 -c 2 -a 0 -i 0 -k RTR 
- -t 0.001448333 -s 5 -d 0 -p AODV -e 44 -c 2 -a 0 -i 0 -k RTR
h -t 0.001448333 -s 5 -d 0 -p AODV -e 44 -c 2 -a 0 -i 0 -k RTR
r -t 0.001448667 -s 2 -d -1 -p AODV -e 48 -c 2 -a 0 -i 0 -k RTR
+ -t 0.002103333 -s 5 -d -1 -p ARP -e 86 -c 2 -a 0 -i 0 -k MAC 
- -t 0.002103333 -s 5 -d -1 -p ARP -e 86 -c 2 -a 0 -i 0 -k MAC
h -t 0.002103333 -s 5 -d -1 -p ARP -e 86 -c 2 -a 0 -i 0 -k MAC
+ -t 0.002330487 -s 2 -d -1 -p AODV -e 48 -c 2 -a 0 -i 0 -k RTR 
- -t 0.002330487 -s 2 -d -1 -p AODV -e 48 -c 2 -a 0 -i 0 -k RTR
h -t 0.002330487 -s 2 -d -1 -p AODV -e 48 -c 2 -a 0 -i 0 -k RTR
r -t 0.002791667 -s 0 -d -1 -p ARP -e 28 -c 2 -a 0 -i 0 -k MAC
r -t 0.002791804 -s 1 -d -1 -p ARP -e 28 -c 2 -a 0 -i 0 -k MAC
r -t 0.002792078 -s 2 -d -1 -p ARP -e 28 -c 2 -a 0 -i 0 -k MAC
+ -t 0.002862078 -s 2 -d -1 -p AODV -e 106 -c 2 -a 0 -i 0 -k MAC 
- -t 0.002862078 -s 2 -d -1 -p AODV -e 106 -c 2 -a 0 -i 0 -k MAC
h -t 0.002862078 -s 2 -d -1 -p AODV -e 106 -c 2 -a 0 -i 0 -k MAC
r -t 0.003710412 -s 1 -d -1 -p AODV -e 48 -c 2 -a 0 -i 0 -k MAC
r -t 0.003710412 -s 3 -d -1 -p AODV -e 48 -c 2 -a 0 -i 0 -k MAC
r -t 0.003710745 -s 0 -d -1 -p AODV -e 48 -c 2 -a 0 -i 0 -k MAC
r -t 0.003710745 -s 4 -d -1 -p AODV -e 48 -c 2 -a 0 -i 0 -k MAC
r -t 0.003710823 -s 5 -d -1 -p AODV -e 48 -c 2 -a 0 -i 0 -k MAC
r -t 0.003735412 -s 1 -d -1 -p AODV -e 48 -c 2 -a 0 -i 0 -k RTR
r -t 0.003735412 -s 3 -d -1 -p AODV -e 48 -c 2 -a 0 -i 0 -k RTR
r -t 0.003735745 -s 0 -d -1 -p AODV -e 48 -c 2 -a 0 -i 0 -k RTR
r -t 0.003735745 -s 4 -d -1 -p AODV -e 48 -c 2 -a 0 -i 0 -k RTR
r -t 0.003735823 -s 5 -d -1 -p AODV -e 48 -c 2 -a 0 -i 0 -k RTR
+ -t 0.004000745 -s 0 -d -1 -p RTS -e 44 -c 2 -a 0 -i 0 -k MAC 
- -t 0.004000745 -s 0 -d -1 -p RTS -e 44 -c 2 -a 0 -i 0 -k MAC
h -t 0.004000745 -s 0 -d -1 -p RTS -e 44 -c 2 -a 0 -i 0 -k MAC
r -t 0.004353078 -s 5 -d -1 -p RTS -e 44 -c 2 -a 0 -i 0 -k MAC
+ -t 0.004363078 -s 5 -d -1 -p CTS -e 38 -c 2 -a 0 -i 0 -k MAC 
- -t 0.004363078 -s 5 -d -1 -p CTS -e 38 -c 2 -a 0 -i 0 -k MAC
h -t 0.004363078 -s 5 -d -1 -p CTS -e 38 -c 2 -a 0 -i 0 -k MAC
r -t 0.004667412 -s 0 -d -1 -p CTS -e 38 -c 2 -a 0 -i 0 -k MAC
+ -t 0.004677412 -s 0 -d -1 -p ARP -e 86 -c 2 -a 0 -i 0 -k MAC 
- -t 0.004677412 -s 0 -d -1 -p ARP -e 86 -c 2 -a 0 -i 0 -k MAC
h -t 0.004677412 -s 0 -d -1 -p ARP -e 86 -c 2 -a 0 -i 0 -k MAC
r -t 0.005365745 -s 5 -d -1 -p ARP -e 28 -c 2 -a 0 -i 0 -k MAC
+ -t 0.005370946 -s 3 -d -1 -p AODV -e 48 -c 2 -a 0 -i 0 -k RTR 
- -t 0.005370946 -s 3 -d -1 -p AODV -e 48 -c 2 -a 0 -i 0 -k RTR
h -t 0.005370946 -s 3 -d -1 -p AODV -e 48 -c 2 -a 0 -i 0 -k RTR
+ -t 0.005375745 -s 5 -d -1 -p ACK -e 38 -c 2 -a 0 -i 0 -k MAC 
- -t 0.005375745 -s 5 -d -1 -p ACK -e 38 -c 2 -a 0 -i 0 -k MAC
h -t 0.005375745 -s 5 -d -1 -p ACK -e 38 -c 2 -a 0 -i 0 -k MAC
r -t 0.005680078 -s 0 -d -1 -p ACK -e 38 -c 2 -a 0 -i 0 -k MAC
+ -t 0.006309745 -s 5 -d -1 -p RTS -e 44 -c 2 -a 0 -i 0 -k MAC 
- -t 0.006309745 -s 5 -d -1 -p RTS -e 44 -c 2 -a 0 -i 0 -k MAC
h -t 0.006309745 -s 5 -d -1 -p RTS -e 44 -c 2 -a 0 -i 0 -k MAC
r -t 0.006662078 -s 0 -d -1 -p RTS -e 44 -c 2 -a 0 -i 0 -k MAC
+ -t 0.006672078 -s 0 -d -1 -p CTS -e 38 -c 2 -a 0 -i 0 -k MAC 
- -t 0.006672078 -s 0 -d -1 -p CTS -e 38 -c 2 -a 0 -i 0 -k MAC
h -t 0.006672078 -s 0 -d -1 -p CTS -e 38 -c 2 -a 0 -i 0 -k MAC
r -t 0.006976412 -s 5 -d -1 -p CTS -e 38 -c 2 -a 0 -i 0 -k MAC
+ -t 0.006986412 -s 5 -d 0 -p AODV -e 102 -c 2 -a 0 -i 0 -k MAC 
- -t 0.006986412 -s 5 -d 0 -p AODV -e 102 -c 2 -a 0 -i 0 -k MAC
h -t 0.006986412 -s 5 -d 0 -p AODV -e 102 -c 2 -a 0 -i 0 -k MAC
+ -t 0.007616657 -s 1 -d -1 -p AODV -e 48 -c 2 -a 0 -i 0 -k RTR 
- -t 0.007616657 -s 1 -d -1 -p AODV -e 48 -c 2 -a 0 -i 0 -k RTR
h -t 0.007616657 -s 1 -d -1 -p AODV -e 48 -c 2 -a 0 -i 0 -k RTR
r -t 0.007802745 -s 0 -d 0 -p AODV -e 44 -c 2 -a 0 -i 0 -k MAC
+ -t 0.007812745 -s 0 -d -1 -p ACK -e 38 -c 2 -a 0 -i 0 -k MAC 
- -t 0.007812745 -s 0 -d -1 -p ACK -e 38 -c 2 -a 0 -i 0 -k MAC
h -t 0.007812745 -s 0 -d -1 -p ACK -e 38 -c 2 -a 0 -i 0 -k MAC
+ -t 0.007827745 -s 0 -d 5 -p tcp -e 40 -c 2 -a 0 -i 0 -k RTR 
- -t 0.007827745 -s 0 -d 5 -p tcp -e 40 -c 2 -a 0 -i 0 -k RTR
h -t 0.007827745 -s 0 -d 5 -p tcp -e 40 -c 2 -a 0 -i 0 -k RTR
r -t 0.008117078 -s 5 -d -1 -p ACK -e 38 -c 2 -a 0 -i 0 -k MAC
+ -t 0.008571745 -s 3 -d -1 -p AODV -e 106 -c 2 -a 0 -i 0 -k MAC 
- -t 0.008571745 -s 3 -d -1 -p AODV -e 106 -c 2 -a 0 -i 0 -k MAC
h -t 0.008571745 -s 3 -d -1 -p AODV -e 106 -c 2 -a 0 -i 0 -k MAC
r -t 0.009420078 -s 2 -d -1 -p AODV -e 48 -c 2 -a 0 -i 0 -k MAC
r -t 0.009420078 -s 4 -d -1 -p AODV -e 48 -c 2 -a 0 -i 0 -k MAC
r -t 0.009420412 -s 1 -d -1 -p AODV -e 48 -c 2 -a 0 -i 0 -k MAC
r -t 0.009420412 -s 6 -d -1 -p AODV -e 48 -c 2 -a 0 -i 0 -k MAC
r -t 0.009445078 -s 2 -d -1 -p AODV -e 48 -c 2 -a 0 -i 0 -k RTR
r -t 0.009445078 -s 4 -d -1 -p AODV -e 48 -c 2 -a 0 -i 0 -k RTR
r -t 0.009445412 -s 1 -d -1 -p AODV -e 48 -c 2 -a 0 -i 0 -k RTR
r -t 0.009445412 -s 6 -d -1 -p AODV -e 48 -c 2 -a 0 -i 0 -k RTR
+ -t 0.009610412 -s 1 -d -1 -p AODV -e 106 -c 2 -a 0 -i 0 -k MAC 
- -t 0.009610412 -s 1 -d -1 -p AODV -e 106 -c 2 -a 0 -i 0 -k MAC
h -t 0.009610412 -s 1 -d -1 -p AODV -e 106 -c 2 -a 0 -i 0 -k MAC
r -t 0.010458745 -s 0 -d -1 -p AODV -e 48 -c 2 -a 0 -i 0 -k MAC
r -t 0.010458745 -s 2 -d -1 -p AODV -e 48 -c 2 -a 0 -i 0 -k MAC
r -t 0.010458882 -s 5 -d -1 -p AODV -e 48 -c 2 -a 0 -i 0 -k MAC
r -t 0.010459078 -s 3 -d -1 -p AODV -e 48 -c 2 -a 0 -i 0 -k MAC
r -t 0.010483745 -s 0 -d -1 -p AODV -e 48 -c 2 -a 0 -i 0 -k RTR
r -t 0.010483745 -s 2 -d -1 -p AODV -e 48 -c 2 -a 0 -i 0 -k RTR
r -t 0.010483882 -s 5 -d -1 -p AODV -e 48 -c 2 -a 0 -i 0 -k RTR
r -t 0.010484078 -s 3 -d -1 -p AODV -e 48 -c 2 -a 0 -i 0 -k RTR
+ -t 0.010548745 -s 0 -d -1 -p RTS -e 44 -c 2 -a 0 -i 0 -k MAC 
- -t 0.010548745 -s 0 -d -1 -p RTS -e 44 -c 2 -a 0 -i 0 -k MAC
h -t 0.010548745 -s 0 -d -1 -p RTS -e 44 -c 2 -a 0 -i 0 -k MAC
r -t 0.010901078 -s 5 -d -1 -p RTS -e 44 -c 2 -a 0 -i 0 -k MAC
+ -t 0.010911078 -s 5 -d -1 -p CTS -e 38 -c 2 -a 0 -i 0 -k MAC 
- -t 0.010911078 -s 5 -d -1 -p CTS -e 38 -c 2 -a 0 -i 0 -k MAC
h -t 0.010911078 -s 5 -d -1 -p CTS -e 38 -c 2 -a 0 -i 0 -k MAC
r -t 0.011215412 -s 0 -d -1 -p CTS -e 38 -c 2 -a 0 -i 0 -k MAC
+ -t 0.011225412 -s 0 -d 5 -p tcp -e 98 -c 2 -a 0 -i 0 -k MAC 
- -t 0.011225412 -s 0 -d 5 -p tcp -e 98 -c 2 -a 0 -i 0 -k MAC
h -t 0.011225412 -s 0 -d 5 -p tcp -e 98 -c 2 -a 0 -i 0 -k MAC
r -t 0.012009745 -s 5 -d 5 -p tcp -e 40 -c 2 -a 0 -i 0 -k MAC
+ -t 0.012019745 -s 5 -d -1 -p ACK -e 38 -c 2 -a 0 -i 0 -k MAC 
- -t 0.012019745 -s 5 -d -1 -p ACK -e 38 -c 2 -a 0 -i 0 -k MAC
h -t 0.012019745 -s 5 -d -1 -p ACK -e 38 -c 2 -a 0 -i 0 -k MAC
+ -t 0.012034745 -s 5 -d 0 -p ack -e 40 -c 2 -a 0 -i 1 -k RTR 
- -t 0.012034745 -s 5 -d 0 -p ack -e 40 -c 2 -a 0 -i 1 -k RTR
h -t 0.012034745 -s 5 -d 0 -p ack -e 40 -c 2 -a 0 -i 1 -k RTR
+ -t 0.012278393 -s 4 -d -1 -p AODV -e 48 -c 2 -a 0 -i 0 -k RTR 
- -t 0.012278393 -s 4 -d -1 -p AODV -e 48 -c 2 -a 0 -i 0 -k RTR
h -t 0.012278393 -s 4 -d -1 -p AODV -e 48 -c 2 -a 0 -i 0 -k RTR
r -t 0.012324078 -s 0 -d -1 -p ACK -e 38 -c 2 -a 0 -i 0 -k MAC
+ -t 0.012433745 -s 5 -d -1 -p RTS -e 44 -c 2 -a 0 -i 0 -k MAC 
- -t 0.012433745 -s 5 -d -1 -p RTS -e 44 -c 2 -a 0 -i 0 -k MAC
h -t 0.012433745 -s 5 -d -1 -p RTS -e 44 -c 2 -a 0 -i 0 -k MAC
r -t 0.012786078 -s 0 -d -1 -p RTS -e 44 -c 2 -a 0 -i 0 -k MAC
+ -t 0.012796078 -s 0 -d -1 -p CTS -e 38 -c 2 -a 0 -i 0 -k MAC 
- -t 0.012796078 -s 0 -d -1 -p CTS -e 38 -c 2 -a 0 -i 0 -k MAC
h -t 0.012796078 -s 0 -d -1 -p CTS -e 38 -c 2 -a 0 -i 0 -k MAC
r -t 0.013100412 -s 5 -d -1 -p CTS -e 38 -c 2 -a 0 -i 0 -k MAC
+ -t 0.013110412 -s 5 -d 0 -p ack -e 98 -c 2 -a 0 -i 1 -k MAC 
- -t 0.013110412 -s 5 -d 0 -p ack -e 98 -c 2 -a 0 -i 1 -k MAC
h -t 0.013110412 -s 5 -d 0 -p ack -e 98 -c 2 -a 0 -i 1 -k MAC
r -t 0.013894745 -s 0 -d 0 -p ack -e 40 -c 2 -a 0 -i 1 -k MAC
+ -t 0.013904745 -s 0 -d -1 -p ACK -e 38 -c 2 -a 0 -i 0 -k MAC 
- -t 0.013904745 -s 0 -d -1 -p ACK -e 38 -c 2 -a 0 -i 0 -k MAC
h -t 0.013904745 -s 0 -d -1 -p ACK -e 38 -c 2 -a 0 -i 0 -k MAC
+ -t 0.013919745 -s 0 -d 5 -p tcp -e 1040 -c 2 -a 0 -i 2 -k RTR 
- -t 0.013919745 -s 0 -d 5 -p tcp -e 1040 -c 2 -a 0 -i 2 -k RTR
h -t 0.013919745 -s 0 -d 5 -p tcp -e 1040 -c 2 -a 0 -i 2 -k RTR
+ -t 0.013919745 -s 0 -d 5 -p tcp -e 1040 -c 2 -a 0 -i 3 -k RTR 
- -t 0.013919745 -s 0 -d 5 -p tcp -e 1040 -c 2 -a 0 -i 3 -k RTR
h -t 0.013919745 -s 0 -d 5 -p tcp -e 1040 -c 2 -a 0 -i 3 -k RTR
r -t 0.014209078 -s 5 -d -1 -p ACK -e 38 -c 2 -a 0 -i 0 -k MAC
+ -t 0.014438745 -s 0 -d -1 -p RTS -e 44 -c 2 -a 0 -i 0 -k MAC 
- -t 0.014438745 -s 0 -d -1 -p RTS -e 44 -c 2 -a 0 -i 0 -k MAC
h -t 0.014438745 -s 0 -d -1 -p RTS -e 44 -c 2 -a 0 -i 0 -k MAC
r -t 0.014791078 -s 5 -d -1 -p RTS -e 44 -c 2 -a 0 -i 0 -k MAC
+ -t 0.014801078 -s 5 -d -1 -p CTS -e 38 -c 2 -a 0 -i 0 -k MAC 
- -t 0.014801078 -s 5 -d -1 -p CTS -e 38 -c 2 -a 0 -i 0 -k MAC
h -t 0.014801078 -s 5 -d -1 -p CTS -e 38 -c 2 -a 0 -i 0 -k MAC
r -t 0.015105412 -s 0 -d -1 -p CTS -e 38 -c 2 -a 0 -i 0 -k MAC
+ -t 0.015115412 -s 0 -d 5 -p tcp -e 1098 -c 2 -a 0 -i 2 -k MAC 
- -t 0.015115412 -s 0 -d 5 -p tcp -e 1098 -c 2 -a 0 -i 2 -k MAC
h -t 0.015115412 -s 0 -d 5 -p tcp -e 1098 -c 2 -a 0 -i 2 -k MAC
+ -t 0.016035131 -s 6 -d -1 -p AODV -e 48 -c 2 -a 0 -i 0 -k RTR 
- -t 0.016035131 -s 6 -d -1 -p AODV -e 48 -c 2 -a 0 -i 0 -k RTR
h -t 0.016035131 -s 6 -d -1 -p AODV -e 48 -c 2 -a 0 -i 0 -k RTR
r -t 0.023899745 -s 5 -d 5 -p tcp -e 1040 -c 2 -a 0 -i 2 -k MAC
+ -t 0.023909745 -s 5 -d -1 -p ACK -e 38 -c 2 -a 0 -i 0 -k MAC 
- -t 0.023909745 -s 5 -d -1 -p ACK -e 38 -c 2 -a 0 -i 0 -k MAC
h -t 0.023909745 -s 5 -d -1 -p ACK -e 38 -c 2 -a 0 -i 0 -k MAC
+ -t 0.023924745 -s 5 -d 0 -p ack -e 40 -c 2 -a 0 -i 4 -k RTR 
- -t 0.023924745 -s 5 -d 0 -p ack -e 40 -c 2 -a 0 -i 4 -k RTR
h -t 0.023924745 -s 5 -d 0 -p ack -e 40 -c 2 -a 0 -i 4 -k RTR
r -t 0.024214078 -s 0 -d -1 -p ACK -e 38 -c 2 -a 0 -i 0 -k MAC
+ -t 0.024284078 -s 0 -d -1 -p RTS -e 44 -c 2 -a 0 -i 0 -k MAC 
- -t 0.024284078 -s 0 -d -1 -p RTS -e 44 -c 2 -a 0 -i 0 -k MAC
h -t 0.024284078 -s 0 -d -1 -p RTS -e 44 -c 2 -a 0 -i 0 -k MAC
r -t 0.024636412 -s 5 -d -1 -p RTS -e 44 -c 2 -a 0 -i 0 -k MAC
+ -t 0.024646412 -s 5 -d -1 -p CTS -e 38 -c 2 -a 0 -i 0 -k MAC 
- -t 0.024646412 -s 5 -d -1 -p CTS -e 38 -c 2 -a 0 -i 0 -k MAC
h -t 0.024646412 -s 5 -d -1 -p CTS -e 38 -c 2 -a 0 -i 0 -k MAC
r -t 0.024950745 -s 0 -d -1 -p CTS -e 38 -c 2 -a 0 -i 0 -k MAC
+ -t 0.024960745 -s 0 -d 5 -p tcp -e 1098 -c 2 -a 0 -i 3 -k MAC 
- -t 0.024960745 -s 0 -d 5 -p tcp -e 1098 -c 2 -a 0 -i 3 -k MAC
h -t 0.024960745 -s 0 -d 5 -p tcp -e 1098 -c 2 -a 0 -i 3 -k MAC
r -t 0.033745079 -s 5 -d 5 -p tcp -e 1040 -c 2 -a 0 -i 3 -k MAC
+ -t 0.033755079 -s 5 -d -1 -p ACK -e 38 -c 2 -a 0 -i 0 -k MAC 
- -t 0.033755079 -s 5 -d -1 -p ACK -e 38 -c 2 -a 0 -i 0 -k MAC
h -t 0.033755079 -s 5 -d -1 -p ACK -e 38 -c 2 -a 0 -i 0 -k MAC
+ -t 0.033770079 -s 5 -d 0 -p ack -e 40 -c 2 -a 0 -i 5 -k RTR 
- -t 0.033770079 -s 5 -d 0 -p ack -e 40 -c 2 -a 0 -i 5 -k RTR
h -t 0.033770079 -s 5 -d 0 -p ack -e 40 -c 2 -a 0 -i 5 -k RTR
r -t 0.034059412 -s 0 -d -1 -p ACK -e 38 -c 2 -a 0 -i 0 -k MAC
+ -t 0.034649079 -s 5 -d -1 -p RTS -e 44 -c 2 -a 0 -i 0 -k MAC 
- -t 0.034649079 -s 5 -d -1 -p RTS -e 44 -c 2 -a 0 -i 0 -k MAC
h -t 0.034649079 -s 5 -d -1 -p RTS -e 44 -c 2 -a 0 -i 0 -k MAC
r -t 0.035001412 -s 0 -d -1 -p RTS -e 44 -c 2 -a 0 -i 0 -k MAC
+ -t 0.035011412 -s 0 -d -1 -p CTS -e 38 -c 2 -a 0 -i 0 -k MAC 
- -t 0.035011412 -s 0 -d -1 -p CTS -e 38 -c 2 -a 0 -i 0 -k MAC
h -t 0.035011412 -s 0 -d -1 -p CTS -e 38 -c 2 -a 0 -i 0 -k MAC
r -t 0.035315745 -s 5 -d -1 -p CTS -e 38 -c 2 -a 0 -i 0 -k MAC
+ -t 0.035325745 -s 5 -d 0 -p ack -e 98 -c 2 -a 0 -i 4 -k MAC 
- -t 0.035325745 -s 5 -d 0 -p ack -e 98 -c 2 -a 0 -i 4 -k MAC
h -t 0.035325745 -s 5 -d 0 -p ack -e 98 -c 2 -a 0 -i 4 -k MAC
r -t 0.036110079 -s 0 -d 0 -p ack -e 40 -c 2 -a 0 -i 4 -k MAC
+ -t 0.036120079 -s 0 -d -1 -p ACK -e 38 -c 2 -a 0 -i 0 -k MAC 
- -t 0.036120079 -s 0 -d -1 -p ACK -e 38 -c 2 -a 0 -i 0 -k MAC
h -t 0.036120079 -s 0 -d -1 -p ACK -e 38 -c 2 -a 0 -i 0 -k MAC
+ -t 0.036135079 -s 0 -d 5 -p tcp -e 1040 -c 2 -a 0 -i 6 -k RTR 
- -t 0.036135079 -s 0 -d 5 -p tcp -e 1040 -c 2 -a 0 -i 6 -k RTR
h -t 0.036135079 -s 0 -d 5 -p tcp -e 1040 -c 2 -a 0 -i 6 -k RTR
+ -t 0.036135079 -s 0 -d 5 -p tcp -e 1040 -c 2 -a 0 -i 7 -k RTR 
- -t 0.036135079 -s 0 -d 5 -p tcp -e 1040 -c 2 -a 0 -i 7 -k RTR
h -t 0.036135079 -s 0 -d 5 -p tcp -e 1040 -c 2 -a 0 -i 7 -k RTR
r -t 0.036424412 -s 5 -d -1 -p ACK -e 38 -c 2 -a 0 -i 0 -k MAC
+ -t 0.036914412 -s 5 -d -1 -p RTS -e 44 -c 2 -a 0 -i 0 -k MAC 
- -t 0.036914412 -s 5 -d -1 -p RTS -e 44 -c 2 -a 0 -i 0 -k MAC
h -t 0.036914412 -s 5 -d -1 -p RTS -e 44 -c 2 -a 0 -i 0 -k MAC
r -t 0.037266746 -s 0 -d -1 -p RTS -e 44 -c 2 -a 0 -i 0 -k MAC
+ -t 0.037276746 -s 0 -d -1 -p CTS -e 38 -c 2 -a 0 -i 0 -k MAC 
- -t 0.037276746 -s 0 -d -1 -p CTS -e 38 -c 2 -a 0 -i 0 -k MAC
h -t 0.037276746 -s 0 -d -1 -p CTS -e 38 -c 2 -a 0 -i 0 -k MAC
r -t 0.037581079 -s 5 -d -1 -p CTS -e 38 -c 2 -a 0 -i 0 -k MAC
+ -t 0.037591079 -s 5 -d 0 -p ack -e 98 -c 2 -a 0 -i 5 -k MAC 
- -t 0.037591079 -s 5 -d 0 -p ack -e 98 -c 2 -a 0 -i 5 -k MAC
h -t 0.037591079 -s 5 -d 0 -p ack -e 98 -c 2 -a 0 -i 5 -k MAC
r -t 0.038375412 -s 0 -d 0 -p ack -e 40 -c 2 -a 0 -i 5 -k MAC
+ -t 0.038385412 -s 0 -d -1 -p ACK -e 38 -c 2 -a 0 -i 0 -k MAC 
- -t 0.038385412 -s 0 -d -1 -p ACK -e 38 -c 2 -a 0 -i 0 -k MAC
h -t 0.038385412 -s 0 -d -1 -p ACK -e 38 -c 2 -a 0 -i 0 -k MAC
+ -t 0.038400412 -s 0 -d 5 -p tcp -e 1040 -c 2 -a 0 -i 8 -k RTR 
- -t 0.038400412 -s 0 -d 5 -p tcp -e 1040 -c 2 -a 0 -i 8 -k RTR
h -t 0.038400412 -s 0 -d 5 -p tcp -e 1040 -c 2 -a 0 -i 8 -k RTR
+ -t 0.038400412 -s 0 -d 5 -p tcp -e 1040 -c 2 -a 0 -i 9 -k RTR 
- -t 0.038400412 -s 0 -d 5 -p tcp -e 1040 -c 2 -a 0 -i 9 -k RTR
h -t 0.038400412 -s 0 -d 5 -p tcp -e 1040 -c 2 -a 0 -i 9 -k RTR
r -t 0.038689746 -s 5 -d -1 -p ACK -e 38 -c 2 -a 0 -i 0 -k MAC
+ -t 0.038839412 -s 0 -d -1 -p RTS -e 44 -c 2 -a 0 -i 0 -k MAC 
- -t 0.038839412 -s 0 -d -1 -p RTS -e 44 -c 2 -a 0 -i 0 -k MAC
h -t 0.038839412 -s 0 -d -1 -p RTS -e 44 -c 2 -a 0 -i 0 -k MAC
r -t 0.039191746 -s 5 -d -1 -p RTS -e 44 -c 2 -a 0 -i 0 -k MAC
+ -t 0.039201746 -s 5 -d -1 -p CTS -e 38 -c 2 -a 0 -i 0 -k MAC 
- -t 0.039201746 -s 5 -d -1 -p CTS -e 38 -c 2 -a 0 -i 0 -k MAC
h -t 0.039201746 -s 5 -d -1 -p CTS -e 38 -c 2 -a 0 -i 0 -k MAC
r -t 0.039506079 -s 0 -d -1 -p CTS -e 38 -c 2 -a 0 -i 0 -k MAC
+ -t 0.039516079 -s 0 -d 5 -p tcp -e 1098 -c 2 -a 0 -i 6 -k MAC 
- -t 0.039516079 -s 0 -d 5 -p tcp -e 1098 -c 2 -a 0 -i 6 -k MAC
h -t 0.039516079 -s 0 -d 5 -p tcp -e 1098 -c 2 -a 0 -i 6 -k MAC
r -t 0.048300413 -s 5 -d 5 -p tcp -e 1040 -c 2 -a 0 -i 6 -k MAC
+ -t 0.048310413 -s 5 -d -1 -p ACK -e 38 -c 2 -a 0 -i 0 -k MAC 
- -t 0.048310413 -s 5 -d -1 -p ACK -e 38 -c 2 -a 0 -i 0 -k MAC
h -t 0.048310413 -s 5 -d -1 -p ACK -e 38 -c 2 -a 0 -i 0 -k MAC
+ -t 0.048325413 -s 5 -d 0 -p ack -e 40 -c 2 -a 0 -i 10 -k RTR 
- -t 0.048325413 -s 5 -d 0 -p ack -e 40 -c 2 -a 0 -i 10 -k RTR
h -t 0.048325413 -s 5 -d 0 -p ack -e 40 -c 2 -a 0 -i 10 -k RTR
r -t 0.048614746 -s 0 -d -1 -p ACK -e 38 -c 2 -a 0 -i 0 -k MAC
+ -t 0.048704413 -s 5 -d -1 -p RTS -e 44 -c 2 -a 0 -i 0 -k MAC 
- -t 0.048704413 -s 5 -d -1 -p RTS -e 44 -c 2 -a 0 -i 0 -k MAC
h -t 0.048704413 -s 5 -d -1 -p RTS -e 44 -c 2 -a 0 -i 0 -k MAC
r -t 0.049056746 -s 0 -d -1 -p RTS -e 44 -c 2 -a 0 -i 0 -k MAC
+ -t 0.049066746 -s 0 -d -1 -p CTS -e 38 -c 2 -a 0 -i 0 -k MAC 
- -t 0.049066746 -s 0 -d -1 -p CTS -e 38 -c 2 -a 0 -i 0 -k MAC
h -t 0.049066746 -s 0 -d -1 -p CTS -e 38 -c 2 -a 0 -i 0 -k MAC
r -t 0.049371080 -s 5 -d -1 -p CTS -e 38 -c 2 -a 0 -i 0 -k MAC
+ -t 0.049381080 -s 5 -d 0 -p ack -e 98 -c 2 -a 0 -i 10 -k MAC 
- -t 0.049381080 -s 5 -d 0 -p ack -e 98 -c 2 -a 0 -i 10 -k MAC
h -t 0.049381080 -s 5 -d 0 -p ack -e 98 -c 2 -a 0 -i 10 -k MAC
r -t 0.050165413 -s 0 -d 0 -p ack -e 40 -c 2 -a 0 -i 10 -k MAC
+ -t 0.050175413 -s 0 -d -1 -p ACK -e 38 -c 2 -a 0 -i 0 -k MAC 
- -t 0.050175413 -s 0 -d -1 -p ACK -e 38 -c 2 -a 0 -i 0 -k MAC
h -t 0.050175413 -s 0 -d -1 -p ACK -e 38 -c 2 -a 0 -i 0 -k MAC
+ -t 0.050190413 -s 0 -d 5 -p tcp -e 1040 -c 2 -a 0 -i 11 -k RTR 
- -t 0.050190413 -s 0 -d 5 -p tcp -e 1040 -c 2 -a 0 -i 11 -k RTR
h -t 0.050190413 -s 0 -d 5 -p tcp -e 1040 -c 2 -a 0 -i 11 -k RTR
+ -t 0.050190413 -s 0 -d 5 -p tcp -e 1040 -c 2 -a 0 -i 12 -k RTR 
- -t 0.050190413 -s 0 -d 5 -p tcp -e 1040 -c 2 -a 0 -i 12 -k RTR
h -t 0.050190413 -s 0 -d 5 -p tcp -e 1040 -c 2 -a 0 -i 12 -k RTR
r -t 0.050479747 -s 5 -d -1 -p ACK -e 38 -c 2 -a 0 -i 0 -k MAC
+ -t 0.050809413 -s 0 -d -1 -p RTS -e 44 -c 2 -a 0 -i 0 -k MAC 
- -t 0.050809413 -s 0 -d -1 -p RTS -e 44 -c 2 -a 0 -i 0 -k MAC
h -t 0.050809413 -s 0 -d -1 -p RTS -e 44 -c 2 -a 0 -i 0 -k MAC
r -t 0.051161747 -s 5 -d -1 -p RTS -e 44 -c 2 -a 0 -i 0 -k MAC
+ -t 0.051171747 -s 5 -d -1 -p CTS -e 38 -c 2 -a 0 -i 0 -k MAC 
- -t 0.051171747 -s 5 -d -1 -p CTS -e 38 -c 2 -a 0 -i 0 -k MAC
h -t 0.051171747 -s 5 -d -1 -p CTS -e 38 -c 2 -a 0 -i 0 -k MAC
r -t 0.051476080 -s 0 -d -1 -p CTS -e 38 -c 2 -a 0 -i 0 -k MAC
+ -t 0.051486080 -s 0 -d 5 -p tcp -e 1098 -c 2 -a 0 -i 7 -k MAC 
- -t 0.051486080 -s 0 -d 5 -p tcp -e 1098 -c 2 -a 0 -i 7 -k MAC
h -t 0.051486080 -s 0 -d 5 -p tcp -e 1098 -c 2 -a 0 -i 7 -k MAC
r -t 0.060270414 -s 5 -d 5 -p tcp -e 1040 -c 2 -a 0 -i 7 -k MAC
+ -t 0.060280414 -s 5 -d -1 -p ACK -e 38 -c 2 -a 0 -i 0 -k MAC 
- -t 0.060280414 -s 5 -d -1 -p ACK -e 38 -c 2 -a 0 -i 0 -k MAC
h -t 0.060280414 -s 5 -d -1 -p ACK -e 38 -c 2 -a 0 -i 0 -k MAC
+ -t 0.060295414 -s 5 -d 0 -p ack -e 40 -c 2 -a 0 -i 13 -k RTR 
- -t 0.060295414 -s 5 -d 0 -p ack -e 40 -c 2 -a 0 -i 13 -k RTR
h -t 0.060295414 -s 5 -d 0 -p ack -e 40 -c 2 -a 0 -i 13 -k RTR
r -t 0.060584747 -s 0 -d -1 -p ACK -e 38 -c 2 -a 0 -i 0 -k MAC
+ -t 0.060734414 -s 5 -d -1 -p RTS -e 44 -c 2 -a 0 -i 0 -k MAC 
- -t 0.060734414 -s 5 -d -1 -p RTS -e 44 -c 2 -a 0 -i 0 -k MAC
h -t 0.060734414 -s 5 -d -1 -p RTS -e 44 -c 2 -a 0 -i 0 -k MAC
r -t 0.061086747 -s 0 -d -1 -p RTS -e 44 -c 2 -a 0 -i 0 -k MAC
+ -t 0.061096747 -s 0 -d -1 -p CTS -e 38 -c 2 -a 0 -i 0 -k MAC 
- -t 0.061096747 -s 0 -d -1 -p CTS -e 38 -c 2 -a 0 -i 0 -k MAC
h -t 0.061096747 -s 0 -d -1 -p CTS -e 38 -c 2 -a 0 -i 0 -k MAC
r -t 0.061401081 -s 5 -d -1 -p CTS -e 38 -c 2 -a 0 -i 0 -k MAC
+ -t 0.061411081 -s 5 -d 0 -p ack -e 98 -c 2 -a 0 -i 13 -k MAC 
- -t 0.061411081 -s 5 -d 0 -p ack -e 98 -c 2 -a 0 -i 13 -k MAC
h -t 0.061411081 -s 5 -d 0 -p ack -e 98 -c 2 -a 0 -i 13 -k MAC
r -t 0.062195414 -s 0 -d 0 -p ack -e 40 -c 2 -a 0 -i 13 -k MAC
+ -t 0.062205414 -s 0 -d -1 -p ACK -e 38 -c 2 -a 0 -i 0 -k MAC 
- -t 0.062205414 -s 0 -d -1 -p ACK -e 38 -c 2 -a 0 -i 0 -k MAC
h -t 0.062205414 -s 0 -d -1 -p ACK -e 38 -c 2 -a 0 -i 0 -k MAC
+ -t 0.062220414 -s 0 -d 5 -p tcp -e 1040 -c 2 -a 0 -i 14 -k RTR 
- -t 0.062220414 -s 0 -d 5 -p tcp -e 1040 -c 2 -a 0 -i 14 -k RTR
h -t 0.062220414 -s 0 -d 5 -p tcp -e 1040 -c 2 -a 0 -i 14 -k RTR
+ -t 0.062220414 -s 0 -d 5 -p tcp -e 1040 -c 2 -a 0 -i 15 -k RTR 
- -t 0.062220414 -s 0 -d 5 -p tcp -e 1040 -c 2 -a 0 -i 15 -k RTR
h -t 0.062220414 -s 0 -d 5 -p tcp -e 1040 -c 2 -a 0 -i 15 -k RTR
r -t 0.062509748 -s 5 -d -1 -p ACK -e 38 -c 2 -a 0 -i 0 -k MAC
+ -t 0.062779414 -s 0 -d -1 -p RTS -e 44 -c 2 -a 0 -i 0 -k MAC 
- -t 0.062779414 -s 0 -d -1 -p RTS -e 44 -c 2 -a 0 -i 0 -k MAC
h -t 0.062779414 -s 0 -d -1 -p RTS -e 44 -c 2 -a 0 -i 0 -k MAC
r -t 0.063131748 -s 5 -d -1 -p RTS -e 44 -c 2 -a 0 -i 0 -k MAC
+ -t 0.063141748 -s 5 -d -1 -p CTS -e 38 -c 2 -a 0 -i 0 -k MAC 
- -t 0.063141748 -s 5 -d -1 -p CTS -e 38 -c 2 -a 0 -i 0 -k MAC
h -t 0.063141748 -s 5 -d -1 -p CTS -e 38 -c 2 -a 0 -i 0 -k MAC
r -t 0.063446081 -s 0 -d -1 -p CTS -e 38 -c 2 -a 0 -i 0 -k MAC
+ -t 0.063456081 -s 0 -d 5 -p tcp -e 1098 -c 2 -a 0 -i 8 -k MAC 
- -t 0.063456081 -s 0 -d 5 -p tcp -e 1098 -c 2 -a 0 -i 8 -k MAC
h -t 0.063456081 -s 0 -d 5 -p tcp -e 1098 -c 2 -a 0 -i 8 -k MAC
r -t 0.072240415 -s 5 -d 5 -p tcp -e 1040 -c 2 -a 0 -i 8 -k MAC
+ -t 0.072250415 -s 5 -d -1 -p ACK -e 38 -c 2 -a 0 -i 0 -k MAC 
- -t 0.072250415 -s 5 -d -1 -p ACK -e 38 -c 2 -a 0 -i 0 -k MAC
h -t 0.072250415 -s 5 -d -1 -p ACK -e 38 -c 2 -a 0 -i 0 -k MAC
+ -t 0.072265415 -s 5 -d 0 -p ack -e 40 -c 2 -a 0 -i 16 -k RTR 
- -t 0.072265415 -s 5 -d 0 -p ack -e 40 -c 2 -a 0 -i 16 -k RTR
h -t 0.072265415 -s 5 -d 0 -p ack -e 40 -c 2 -a 0 -i 16 -k RTR
r -t 0.072554749 -s 0 -d -1 -p ACK -e 38 -c 2 -a 0 -i 0 -k MAC
+ -t 0.072664749 -s 0 -d -1 -p RTS -e 44 -c 2 -a 0 -i 0 -k MAC 
- -t 0.072664749 -s 0 -d -1 -p RTS -e 44 -c 2 -a 0 -i 0 -k MAC
h -t 0.072664749 -s 0 -d -1 -p RTS -e 44 -c 2 -a 0 -i 0 -k MAC
r -t 0.073017082 -s 5 -d -1 -p RTS -e 44 -c 2 -a 0 -i 0 -k MAC
+ -t 0.073027082 -s 5 -d -1 -p CTS -e 38 -c 2 -a 0 -i 0 -k MAC 
- -t 0.073027082 -s 5 -d -1 -p CTS -e 38 -c 2 -a 0 -i 0 -k MAC
h -t 0.073027082 -s 5 -d -1 -p CTS -e 38 -c 2 -a 0 -i 0 -k MAC
r -t 0.073331416 -s 0 -d -1 -p CTS -e 38 -c 2 -a 0 -i 0 -k MAC
+ -t 0.073341416 -s 0 -d 5 -p tcp -e 1098 -c 2 -a 0 -i 9 -k MAC 
- -t 0.073341416 -s 0 -d 5 -p tcp -e 1098 -c 2 -a 0 -i 9 -k MAC
h -t 0.073341416 -s 0 -d 5 -p tcp -e 1098 -c 2 -a 0 -i 9 -k MAC
r -t 0.082125750 -s 5 -d 5 -p tcp -e 1040 -c 2 -a 0 -i 9 -k MAC
+ -t 0.082135750 -s 5 -d -1 -p ACK -e 38 -c 2 -a 0 -i 0 -k MAC 
- -t 0.082135750 -s 5 -d -1 -p ACK -e 38 -c 2 -a 0 -i 0 -k MAC
h -t 0.082135750 -s 5 -d -1 -p ACK -e 38 -c 2 -a 0 -i 0 -k MAC
+ -t 0.082150750 -s 5 -d 0 -p ack -e 40 -c 2 -a 0 -i 17 -k RTR 
- -t 0.082150750 -s 5 -d 0 -p ack -e 40 -c 2 -a 0 -i 17 -k RTR
h -t 0.082150750 -s 5 -d 0 -p ack -e 40 -c 2 -a 0 -i 17 -k RTR
r -t 0.082440083 -s 0 -d -1 -p ACK -e 38 -c 2 -a 0 -i 0 -k MAC
+ -t 0.082590083 -s 0 -d -1 -p RTS -e 44 -c 2 -a 0 -i 0 -k MAC 
- -t 0.082590083 -s 0 -d -1 -p RTS -e 44 -c 2 -a 0 -i 0 -k MAC
h -t 0.082590083 -s 0 -d -1 -p RTS -e 44 -c 2 -a 0 -i 0 -k MAC
r -t 0.082942417 -s 5 -d -1 -p RTS -e 44 -c 2 -a 0 -i 0 -k MAC
+ -t 0.082952417 -s 5 -d -1 -p CTS -e 38 -c 2 -a 0 -i 0 -k MAC 
- -t 0.082952417 -s 5 -d -1 -p CTS -e 38 -c 2 -a 0 -i 0 -k MAC
h -t 0.082952417 -s 5 -d -1 -p CTS -e 38 -c 2 -a 0 -i 0 -k MAC
r -t 0.083256751 -s 0 -d -1 -p CTS -e 38 -c 2 -a 0 -i 0 -k MAC
+ -t 0.083266751 -s 0 -d 5 -p tcp -e 1098 -c 2 -a 0 -i 11 -k MAC 
- -t 0.083266751 -s 0 -d 5 -p tcp -e 1098 -c 2 -a 0 -i 11 -k MAC
h -t 0.083266751 -s 0 -d 5 -p tcp -e 1098 -c 2 -a 0 -i 11 -k MAC
r -t 0.092051085 -s 5 -d 5 -p tcp -e 1040 -c 2 -a 0 -i 11 -k MAC
+ -t 0.092061085 -s 5 -d -1 -p ACK -e 38 -c 2 -a 0 -i 0 -k MAC 
- -t 0.092061085 -s 5 -d -1 -p ACK -e 38 -c 2 -a 0 -i 0 -k MAC
h -t 0.092061085 -s 5 -d -1 -p ACK -e 38 -c 2 -a 0 -i 0 -k MAC
+ -t 0.092076085 -s 5 -d 0 -p ack -e 40 -c 2 -a 0 -i 18 -k RTR 
- -t 0.092076085 -s 5 -d 0 -p ack -e 40 -c 2 -a 0 -i 18 -k RTR
h -t 0.092076085 -s 5 -d 0 -p ack -e 40 -c 2 -a 0 -i 18 -k RTR
r -t 0.092365418 -s 0 -d -1 -p ACK -e 38 -c 2 -a 0 -i 0 -k MAC
+ -t 0.092655418 -s 0 -d -1 -p RTS -e 44 -c 2 -a 0 -i 0 -k MAC 
- -t 0.092655418 -s 0 -d -1 -p RTS -e 44 -c 2 -a 0 -i 0 -k MAC
h -t 0.092655418 -s 0 -d -1 -p RTS -e 44 -c 2 -a 0 -i 0 -k MAC
r -t 0.093007752 -s 5 -d -1 -p RTS -e 44 -c 2 -a 0 -i 0 -k MAC
+ -t 0.093017752 -s 5 -d -1 -p CTS -e 38 -c 2 -a 0 -i 0 -k MAC 
- -t 0.093017752 -s 5 -d -1 -p CTS -e 38 -c 2 -a 0 -i 0 -k MAC
h -t 0.093017752 -s 5 -d -1 -p CTS -e 38 -c 2 -a 0 -i 0 -k MAC
r -t 0.093322086 -s 0 -d -1 -p CTS -e 38 -c 2 -a 0 -i 0 -k MAC
+ -t 0.093332086 -s 0 -d 5 -p tcp -e 1098 -c 2 -a 0 -i 12 -k MAC 
- -t 0.093332086 -s 0 -d 5 -p tcp -e 1098 -c 2 -a 0 -i 12 -k MAC
h -t 0.093332086 -s 0 -d 5 -p tcp -e 1098 -c 2 -a 0 -i 12 -k MAC
r -t 0.102116420 -s 5 -d 5 -p tcp -e 1040 -c 2 -a 0 -i 12 -k MAC
+ -t 0.102126420 -s 5 -d -1 -p ACK -e 38 -c 2 -a 0 -i 0 -k MAC 
- -t 0.102126420 -s 5 -d -1 -p ACK -e 38 -c 2 -a 0 -i 0 -k MAC
h -t 0.102126420 -s 5 -d -1 -p ACK -e 38 -c 2 -a 0 -i 0 -k MAC
+ -t 0.102141420 -s 5 -d 0 -p ack -e 40 -c 2 -a 0 -i 19 -k RTR 
- -t 0.102141420 -s 5 -d 0 -p ack -e 40 -c 2 -a 0 -i 19 -k RTR
h -t 0.102141420 -s 5 -d 0 -p ack -e 40 -c 2 -a 0 -i 19 -k RTR
r -t 0.102430754 -s 0 -d -1 -p ACK -e 38 -c 2 -a 0 -i 0 -k MAC
+ -t 0.102520420 -s 5 -d -1 -p RTS -e 44 -c 2 -a 0 -i 0 -k MAC 
- -t 0.102520420 -s 5 -d -1 -p RTS -e 44 -c 2 -a 0 -i 0 -k MAC
h -t 0.102520420 -s 5 -d -1 -p RTS -e 44 -c 2 -a 0 -i 0 -k MAC
r -t 0.102872754 -s 0 -d -1 -p RTS -e 44 -c 2 -a 0 -i 0 -k MAC
+ -t 0.102882754 -s 0 -d -1 -p CTS -e 38 -c 2 -a 0 -i 0 -k MAC 
- -t 0.102882754 -s 0 -d -1 -p CTS -e 38 -c 2 -a 0 -i 0 -k MAC
h -t 0.102882754 -s 0 -d -1 -p CTS -e 38 -c 2 -a 0 -i 0 -k MAC
r -t 0.103187088 -s 5 -d -1 -p CTS -e 38 -c 2 -a 0 -i 0 -k MAC
+ -t 0.103197088 -s 5 -d 0 -p ack -e 98 -c 2 -a 0 -i 16 -k MAC 
- -t 0.103197088 -s 5 -d 0 -p ack -e 98 -c 2 -a 0 -i 16 -k MAC
h -t 0.103197088 -s 5 -d 0 -p ack -e 98 -c 2 -a 0 -i 16 -k MAC
r -t 0.103981422 -s 0 -d 0 -p ack -e 40 -c 2 -a 0 -i 16 -k MAC
+ -t 0.103991422 -s 0 -d -1 -p ACK -e 38 -c 2 -a 0 -i 0 -k MAC 
- -t 0.103991422 -s 0 -d -1 -p ACK -e 38 -c 2 -a 0 -i 0 -k MAC
h -t 0.103991422 -s 0 -d -1 -p ACK -e 38 -c 2 -a 0 -i 0 -k MAC
+ -t 0.104006422 -s 0 -d 5 -p tcp -e 1040 -c 2 -a 0 -i 20 -k RTR 
- -t 0.104006422 -s 0 -d 5 -p tcp -e 1040 -c 2 -a 0 -i 20 -k RTR
h -t 0.104006422 -s 0 -d 5 -p tcp -e 1040 -c 2 -a 0 -i 20 -k RTR
+ -t 0.104006422 -s 0 -d 5 -p tcp -e 1040 -c 2 -a 0 -i 21 -k RTR 
- -t 0.104006422 -s 0 -d 5 -p tcp -e 1040 -c 2 -a 0 -i 21 -k RTR
h -t 0.104006422 -s 0 -d 5 -p tcp -e 1040 -c 2 -a 0 -i 21 -k RTR
r -t 0.104295756 -s 5 -d -1 -p ACK -e 38 -c 2 -a 0 -i 0 -k MAC
+ -t 0.104505756 -s 5 -d -1 -p RTS -e 44 -c 2 -a 0 -i 0 -k MAC 
- -t 0.104505756 -s 5 -d -1 -p RTS -e 44 -c 2 -a 0 -i 0 -k MAC
h -t 0.104505756 -s 5 -d -1 -p RTS -e 44 -c 2 -a 0 -i 0 -k MAC
r -t 0.104858090 -s 0 -d -1 -p RTS -e 44 -c 2 -a 0 -i 0 -k MAC
+ -t 0.104868090 -s 0 -d -1 -p CTS -e 38 -c 2 -a 0 -i 0 -k MAC 
- -t 0.104868090 -s 0 -d -1 -p CTS -e 38 -c 2 -a 0 -i 0 -k MAC
h -t 0.104868090 -s 0 -d -1 -p CTS -e 38 -c 2 -a 0 -i 0 -k MAC
r -t 0.105172424 -s 5 -d -1 -p CTS -e 38 -c 2 -a 0 -i 0 -k MAC
+ -t 0.105182424 -s 5 -d 0 -p ack -e 98 -c 2 -a 0 -i 17 -k MAC 
- -t 0.105182424 -s 5 -d 0 -p ack -e 98 -c 2 -a 0 -i 17 -k MAC
h -t 0.105182424 -s 5 -d 0 -p ack -e 98 -c 2 -a 0 -i 17 -k MAC
r -t 0.105966758 -s 0 -d 0 -p ack -e 40 -c 2 -a 0 -i 17 -k MAC
+ -t 0.105976758 -s 0 -d -1 -p ACK -e 38 -c 2 -a 0 -i 0 -k MAC 
- -t 0.105976758 -s 0 -d -1 -p ACK -e 38 -c 2 -a 0 -i 0 -k MAC
h -t 0.105976758 -s 0 -d -1 -p ACK -e 38 -c 2 -a 0 -i 0 -k MAC
+ -t 0.105991758 -s 0 -d 5 -p tcp -e 1040 -c 2 -a 0 -i 22 -k RTR 
- -t 0.105991758 -s 0 -d 5 -p tcp -e 1040 -c 2 -a 0 -i 22 -k RTR
h -t 0.105991758 -s 0 -d 5 -p tcp -e 1040 -c 2 -a 0 -i 22 -k RTR
+ -t 0.105991758 -s 0 -d 5 -p tcp -e 1040 -c 2 -a 0 -i 23 -k RTR 
- -t 0.105991758 -s 0 -d 5 -p tcp -e 1040 -c 2 -a 0 -i 23 -k RTR
h -t 0.105991758 -s 0 -d 5 -p tcp -e 1040 -c 2 -a 0 -i 23 -k RTR
r -t 0.106281092 -s 5 -d -1 -p ACK -e 38 -c 2 -a 0 -i 0 -k MAC
+ -t 0.106450758 -s 0 -d -1 -p RTS -e 44 -c 2 -a 0 -i 0 -k MAC 
- -t 0.106450758 -s 0 -d -1 -p RTS -e 44 -c 2 -a 0 -i 0 -k MAC
h -t 0.106450758 -s 0 -d -1 -p RTS -e 44 -c 2 -a 0 -i 0 -k MAC
r -t 0.106803092 -s 5 -d -1 -p RTS -e 44 -c 2 -a 0 -i 0 -k MAC
+ -t 0.106813092 -s 5 -d -1 -p CTS -e 38 -c 2 -a 0 -i 0 -k MAC 
- -t 0.106813092 -s 5 -d -1 -p CTS -e 38 -c 2 -a 0 -i 0 -k MAC
h -t 0.106813092 -s 5 -d -1 -p CTS -e 38 -c 2 -a 0 -i 0 -k MAC
r -t 0.107117426 -s 0 -d -1 -p CTS -e 38 -c 2 -a 0 -i 0 -k MAC
+ -t 0.107127426 -s 0 -d 5 -p tcp -e 1098 -c 2 -a 0 -i 14 -k MAC 
- -t 0.107127426 -s 0 -d 5 -p tcp -e 1098 -c 2 -a 0 -i 14 -k MAC
h -t 0.107127426 -s 0 -d 5 -p tcp -e 1098 -c 2 -a 0 -i 14 -k MAC
r -t 0.115911760 -s 5 -d 5 -p tcp -e 1040 -c 2 -a 0 -i 14 -k MAC
+ -t 0.115921760 -s 5 -d -1 -p ACK -e 38 -c 2 -a 0 -i 0 -k MAC 
- -t 0.115921760 -s 5 -d -1 -p ACK -e 38 -c 2 -a 0 -i 0 -k MAC
h -t 0.115921760 -s 5 -d -1 -p ACK -e 38 -c 2 -a 0 -i 0 -k MAC
+ -t 0.115936760 -s 5 -d 0 -p ack -e 40 -c 2 -a 0 -i 24 -k RTR 
- -t 0.115936760 -s 5 -d 0 -p ack -e 40 -c 2 -a 0 -i 24 -k RTR