n -t * -s 0  -x 0 -y 0 -Z 0 -z 30  -v circle -c black
n -t * -s 1  -x 0 -y 0 -Z 0 -z 30  -v circle -c black
n -t * -s 2  -x 0 -y 0 -Z 0 -z 30  -v circle -c black
n -t * -s 3  -x 0 -y 0 -Z 0 -z 30  -v circle -c black
n -t * -s 4  -x 0 -y 0 -Z 0 -z 30  -v circle -c black
n -t * -s 5  -x 0 -y 0 -Z 0 -z 30  -v circle -c black
V -t * -v 1.0a5 -a 0
W -t * -x 1200 -y 1200
A -t * -n 1 -p 0 -o 0x7fffffff -c 30 -a 1
A -t * -h 1 -m 1073741823 -s 0
c -t * -i 4 -n brown
c -t * -i 0 -n blue
c -t * -i 5 -n tan
c -t * -i 1 -n red
c -t * -i 6 -n gold
c -t * -i 2 -n chocolate
c -t * -i 7 -n black
c -t * -i 3 -n red
n -t 0.000000 -s 0 -x 100.000000 -y 100.000000 -U 0.000000 -V 0.000000 -T 0.000000
n -t 0.000000 -s 1 -x 300.000000 -y 200.000000 -U 0.000000 -V 2000.000000 -T 0.105000
n -t 0.000000 -s 2 -x 500.000000 -y 200.000000 -U 0.000000 -V 2000.000000 -T 0.105000
n -t 0.000000 -s 3 -x 700.000000 -y 200.000000 -U 0.000000 -V 2000.000000 -T 0.105000
n -t 0.000000 -s 4 -x 900.000000 -y 200.000000 -U 0.000000 -V 2000.000000 -T 0.105000
n -t 0.000000 -s 5 -x 100.000000 -y 100.000000 -U 2000.000000 -V 0.000000 -T 0.105000
+ -t 0.300000000 -s 0 -d -1 -p AODV -e 48 -c 2 -a 0 -i 0 -k RTR 
- -t 0.300000000 -s 0 -d -1 -p AODV -e 48 -c 2 -a 0 -i 0 -k RTR
h -t 0.300000000 -s 0 -d -1 -p AODV -e 48 -c 2 -a 0 -i 0 -k RTR
+ -t 0.300000000 -s 5 -d -1 -p AODV -e 48 -c 2 -a 0 -i 0 -k RTR 
- -t 0.300000000 -s 5 -d -1 -p AODV -e 48 -c 2 -a 0 -i 0 -k RTR
h -t 0.300000000 -s 5 -d -1 -p AODV -e 48 -c 2 -a 0 -i 0 -k RTR
+ -t 0.300575000 -s 5 -d -1 -p AODV -e 106 -c 2 -a 0 -i 0 -k MAC 
- -t 0.300575000 -s 5 -d -1 -p AODV -e 106 -c 2 -a 0 -i 0 -k MAC
h -t 0.300575000 -s 5 -d -1 -p AODV -e 106 -c 2 -a 0 -i 0 -k MAC
r -t 0.301423700 -s 0 -d -1 -p AODV -e 48 -c 2 -a 0 -i 0 -k MAC
r -t 0.301448700 -s 0 -d -1 -p AODV -e 48 -c 2 -a 0 -i 0 -k RTR
+ -t 0.301448700 -s 0 -d 5 -p cbr -e 1020 -c 2 -a 0 -i 0 -k RTR 
- -t 0.301448700 -s 0 -d 5 -p cbr -e 1020 -c 2 -a 0 -i 0 -k RTR
h -t 0.301448700 -s 0 -d 5 -p cbr -e 1020 -c 2 -a 0 -i 0 -k RTR
+ -t 0.301448700 -s 0 -d 5 -p AODV -e 44 -c 2 -a 0 -i 0 -k RTR 
- -t 0.301448700 -s 0 -d 5 -p AODV -e 44 -c 2 -a 0 -i 0 -k RTR
h -t 0.301448700 -s 0 -d 5 -p AODV -e 44 -c 2 -a 0 -i 0 -k RTR
d -t 0.301448700 -s 0 -d 5 -p cbr -e 1020 -c 2 -a 0 -i 0 -k IFQ
+ -t 0.301553700 -s 0 -d -1 -p AODV -e 106 -c 2 -a 0 -i 0 -k MAC 
- -t 0.301553700 -s 0 -d -1 -p AODV -e 106 -c 2 -a 0 -i 0 -k MAC
h -t 0.301553700 -s 0 -d -1 -p AODV -e 106 -c 2 -a 0 -i 0 -k MAC
r -t 0.302402400 -s 5 -d -1 -p AODV -e 48 -c 2 -a 0 -i 0 -k MAC
r -t 0.302427400 -s 5 -d -1 -p AODV -e 48 -c 2 -a 0 -i 0 -k RTR
+ -t 0.302427400 -s 5 -d 0 -p cbr -e 1020 -c 2 -a 0 -i 1 -k RTR 
- -t 0.302427400 -s 5 -d 0 -p cbr -e 1020 -c 2 -a 0 -i 1 -k RTR
h -t 0.302427400 -s 5 -d 0 -p cbr -e 1020 -c 2 -a 0 -i 1 -k RTR
+ -t 0.302427400 -s 5 -d 0 -p AODV -e 44 -c 2 -a 0 -i 0 -k RTR 
- -t 0.302427400 -s 5 -d 0 -p AODV -e 44 -c 2 -a 0 -i 0 -k RTR
h -t 0.302427400 -s 5 -d 0 -p AODV -e 44 -c 2 -a 0 -i 0 -k RTR
d -t 0.302427400 -s 5 -d 0 -p cbr -e 1020 -c 2 -a 0 -i 1 -k IFQ
+ -t 0.302552400 -s 5 -d -1 -p ARP -e 86 -c 2 -a 0 -i 0 -k MAC 
- -t 0.302552400 -s 5 -d -1 -p ARP -e 86 -c 2 -a 0 -i 0 -k MAC
h -t 0.302552400 -s 5 -d -1 -p ARP -e 86 -c 2 -a 0 -i 0 -k MAC
r -t 0.303241100 -s 0 -d -1 -p ARP -e 28 -c 2 -a 0 -i 0 -k MAC
+ -t 0.303431100 -s 0 -d -1 -p ARP -e 86 -c 2 -a 0 -i 0 -k MAC 
- -t 0.303431100 -s 0 -d -1 -p ARP -e 86 -c 2 -a 0 -i 0 -k MAC
h -t 0.303431100 -s 0 -d -1 -p ARP -e 86 -c 2 -a 0 -i 0 -k MAC
r -t 0.304119800 -s 5 -d -1 -p ARP -e 28 -c 2 -a 0 -i 0 -k MAC
+ -t 0.304209800 -s 5 -d -1 -p ARP -e 86 -c 2 -a 0 -i 0 -k MAC 
- -t 0.304209800 -s 5 -d -1 -p ARP -e 86 -c 2 -a 0 -i 0 -k MAC
h -t 0.304209800 -s 5 -d -1 -p ARP -e 86 -c 2 -a 0 -i 0 -k MAC
r -t 0.304898500 -s 0 -d -1 -p ARP -e 28 -c 2 -a 0 -i 0 -k MAC
+ -t 0.304967800 -s 5 -d -1 -p RTS -e 44 -c 2 -a 0 -i 0 -k MAC 
- -t 0.304967800 -s 5 -d -1 -p RTS -e 44 -c 2 -a 0 -i 0 -k MAC
h -t 0.304967800 -s 5 -d -1 -p RTS -e 44 -c 2 -a 0 -i 0 -k MAC
r -t 0.305320500 -s 0 -d -1 -p RTS -e 44 -c 2 -a 0 -i 0 -k MAC
+ -t 0.305330500 -s 0 -d -1 -p CTS -e 38 -c 2 -a 0 -i 0 -k MAC 
- -t 0.305330500 -s 0 -d -1 -p CTS -e 38 -c 2 -a 0 -i 0 -k MAC
h -t 0.305330500 -s 0 -d -1 -p CTS -e 38 -c 2 -a 0 -i 0 -k MAC
r -t 0.305635200 -s 5 -d -1 -p CTS -e 38 -c 2 -a 0 -i 0 -k MAC
+ -t 0.305645200 -s 5 -d 0 -p AODV -e 102 -c 2 -a 0 -i 0 -k MAC 
- -t 0.305645200 -s 5 -d 0 -p AODV -e 102 -c 2 -a 0 -i 0 -k MAC
h -t 0.305645200 -s 5 -d 0 -p AODV -e 102 -c 2 -a 0 -i 0 -k MAC
r -t 0.306461900 -s 0 -d 0 -p AODV -e 44 -c 2 -a 0 -i 0 -k MAC
+ -t 0.306471900 -s 0 -d -1 -p ACK -e 38 -c 2 -a 0 -i 0 -k MAC 
- -t 0.306471900 -s 0 -d -1 -p ACK -e 38 -c 2 -a 0 -i 0 -k MAC
h -t 0.306471900 -s 0 -d -1 -p ACK -e 38 -c 2 -a 0 -i 0 -k MAC
r -t 0.306776600 -s 5 -d -1 -p ACK -e 38 -c 2 -a 0 -i 0 -k MAC
+ -t 0.306946600 -s 5 -d -1 -p RTS -e 44 -c 2 -a 0 -i 0 -k MAC 
- -t 0.306946600 -s 5 -d -1 -p RTS -e 44 -c 2 -a 0 -i 0 -k MAC
h -t 0.306946600 -s 5 -d -1 -p RTS -e 44 -c 2 -a 0 -i 0 -k MAC
r -t 0.307299300 -s 0 -d -1 -p RTS -e 44 -c 2 -a 0 -i 0 -k MAC
+ -t 0.307309300 -s 0 -d -1 -p CTS -e 38 -c 2 -a 0 -i 0 -k MAC 
- -t 0.307309300 -s 0 -d -1 -p CTS -e 38 -c 2 -a 0 -i 0 -k MAC
h -t 0.307309300 -s 0 -d -1 -p CTS -e 38 -c 2 -a 0 -i 0 -k MAC
r -t 0.307614000 -s 5 -d -1 -p CTS -e 38 -c 2 -a 0 -i 0 -k MAC
+ -t 0.307624000 -s 5 -d -1 -p ARP -e 86 -c 2 -a 0 -i 0 -k MAC 
- -t 0.307624000 -s 5 -d -1 -p ARP -e 86 -c 2 -a 0 -i 0 -k MAC
h -t 0.307624000 -s 5 -d -1 -p ARP -e 86 -c 2 -a 0 -i 0 -k MAC
r -t 0.308312700 -s 0 -d -1 -p ARP -e 28 -c 2 -a 0 -i 0 -k MAC
+ -t 0.308322700 -s 0 -d -1 -p ACK -e 38 -c 2 -a 0 -i 0 -k MAC 
- -t 0.308322700 -s 0 -d -1 -p ACK -e 38 -c 2 -a 0 -i 0 -k MAC
h -t 0.308322700 -s 0 -d -1 -p ACK -e 38 -c 2 -a 0 -i 0 -k MAC
r -t 0.308627400 -s 5 -d -1 -p ACK -e 38 -c 2 -a 0 -i 0 -k MAC
+ -t 0.309096700 -s 0 -d -1 -p RTS -e 44 -c 2 -a 0 -i 0 -k MAC 
- -t 0.309096700 -s 0 -d -1 -p RTS -e 44 -c 2 -a 0 -i 0 -k MAC
h -t 0.309096700 -s 0 -d -1 -p RTS -e 44 -c 2 -a 0 -i 0 -k MAC
r -t 0.309449400 -s 5 -d -1 -p RTS -e 44 -c 2 -a 0 -i 0 -k MAC
+ -t 0.309459400 -s 5 -d -1 -p CTS -e 38 -c 2 -a 0 -i 0 -k MAC 
- -t 0.309459400 -s 5 -d -1 -p CTS -e 38 -c 2 -a 0 -i 0 -k MAC
h -t 0.309459400 -s 5 -d -1 -p CTS -e 38 -c 2 -a 0 -i 0 -k MAC
r -t 0.309764100 -s 0 -d -1 -p CTS -e 38 -c 2 -a 0 -i 0 -k MAC
+ -t 0.309774100 -s 0 -d 5 -p AODV -e 102 -c 2 -a 0 -i 0 -k MAC 
- -t 0.309774100 -s 0 -d 5 -p AODV -e 102 -c 2 -a 0 -i 0 -k MAC
h -t 0.309774100 -s 0 -d 5 -p AODV -e 102 -c 2 -a 0 -i 0 -k MAC
r -t 0.310590800 -s 5 -d 5 -p AODV -e 44 -c 2 -a 0 -i 0 -k MAC
+ -t 0.310600800 -s 5 -d -1 -p ACK -e 38 -c 2 -a 0 -i 0 -k MAC 
- -t 0.310600800 -s 5 -d -1 -p ACK -e 38 -c 2 -a 0 -i 0 -k MAC
h -t 0.310600800 -s 5 -d -1 -p ACK -e 38 -c 2 -a 0 -i 0 -k MAC
r -t 0.310905500 -s 0 -d -1 -p ACK -e 38 -c 2 -a 0 -i 0 -k MAC
+ -t 0.311135500 -s 0 -d -1 -p ARP -e 86 -c 2 -a 0 -i 0 -k MAC 
- -t 0.311135500 -s 0 -d -1 -p ARP -e 86 -c 2 -a 0 -i 0 -k MAC
h -t 0.311135500 -s 0 -d -1 -p ARP -e 86 -c 2 -a 0 -i 0 -k MAC
r -t 0.311824200 -s 5 -d -1 -p ARP -e 28 -c 2 -a 0 -i 0 -k MAC
+ -t 0.312299200 -s 5 -d -1 -p RTS -e 44 -c 2 -a 0 -i 0 -k MAC 
- -t 0.312299200 -s 5 -d -1 -p RTS -e 44 -c 2 -a 0 -i 0 -k MAC
h -t 0.312299200 -s 5 -d -1 -p RTS -e 44 -c 2 -a 0 -i 0 -k MAC
r -t 0.312651900 -s 0 -d -1 -p RTS -e 44 -c 2 -a 0 -i 0 -k MAC
+ -t 0.312661900 -s 0 -d -1 -p CTS -e 38 -c 2 -a 0 -i 0 -k MAC 
- -t 0.312661900 -s 0 -d -1 -p CTS -e 38 -c 2 -a 0 -i 0 -k MAC
h -t 0.312661900 -s 0 -d -1 -p CTS -e 38 -c 2 -a 0 -i 0 -k MAC
r -t 0.312966600 -s 5 -d -1 -p CTS -e 38 -c 2 -a 0 -i 0 -k MAC
+ -t 0.312976600 -s 5 -d -1 -p ARP -e 86 -c 2 -a 0 -i 0 -k MAC 
- -t 0.312976600 -s 5 -d -1 -p ARP -e 86 -c 2 -a 0 -i 0 -k MAC
h -t 0.312976600 -s 5 -d -1 -p ARP -e 86 -c 2 -a 0 -i 0 -k MAC
r -t 0.313665300 -s 0 -d -1 -p ARP -e 28 -c 2 -a 0 -i 0 -k MAC
+ -t 0.313675300 -s 0 -d -1 -p ACK -e 38 -c 2 -a 0 -i 0 -k MAC 
- -t 0.313675300 -s 0 -d -1 -p ACK -e 38 -c 2 -a 0 -i 0 -k MAC
h -t 0.313675300 -s 0 -d -1 -p ACK -e 38 -c 2 -a 0 -i 0 -k MAC
r -t 0.313980000 -s 5 -d -1 -p ACK -e 38 -c 2 -a 0 -i 0 -k MAC
+ -t 0.314209300 -s 0 -d -1 -p RTS -e 44 -c 2 -a 0 -i 0 -k MAC 
- -t 0.314209300 -s 0 -d -1 -p RTS -e 44 -c 2 -a 0 -i 0 -k MAC
h -t 0.314209300 -s 0 -d -1 -p RTS -e 44 -c 2 -a 0 -i 0 -k MAC
r -t 0.314562000 -s 5 -d -1 -p RTS -e 44 -c 2 -a 0 -i 0 -k MAC
+ -t 0.314572000 -s 5 -d -1 -p CTS -e 38 -c 2 -a 0 -i 0 -k MAC 
- -t 0.314572000 -s 5 -d -1 -p CTS -e 38 -c 2 -a 0 -i 0 -k MAC
h -t 0.314572000 -s 5 -d -1 -p CTS -e 38 -c 2 -a 0 -i 0 -k MAC
r -t 0.314876700 -s 0 -d -1 -p CTS -e 38 -c 2 -a 0 -i 0 -k MAC
+ -t 0.314886700 -s 0 -d -1 -p ARP -e 86 -c 2 -a 0 -i 0 -k MAC 
- -t 0.314886700 -s 0 -d -1 -p ARP -e 86 -c 2 -a 0 -i 0 -k MAC
h -t 0.314886700 -s 0 -d -1 -p ARP -e 86 -c 2 -a 0 -i 0 -k MAC
+ -t 0.315000000 -s 0 -d 5 -p cbr -e 1020 -c 2 -a 0 -i 2 -k RTR 
- -t 0.315000000 -s 0 -d 5 -p cbr -e 1020 -c 2 -a 0 -i 2 -k RTR
h -t 0.315000000 -s 0 -d 5 -p cbr -e 1020 -c 2 -a 0 -i 2 -k RTR
+ -t 0.315000000 -s 5 -d 0 -p cbr -e 1020 -c 2 -a 0 -i 3 -k RTR 
- -t 0.315000000 -s 5 -d 0 -p cbr -e 1020 -c 2 -a 0 -i 3 -k RTR
h -t 0.315000000 -s 5 -d 0 -p cbr -e 1020 -c 2 -a 0 -i 3 -k RTR
r -t 0.315575400 -s 5 -d -1 -p ARP -e 28 -c 2 -a 0 -i 0 -k MAC
+ -t 0.315585400 -s 5 -d -1 -p ACK -e 38 -c 2 -a 0 -i 0 -k MAC 
- -t 0.315585400 -s 5 -d -1 -p ACK -e 38 -c 2 -a 0 -i 0 -k MAC
h -t 0.315585400 -s 5 -d -1 -p ACK -e 38 -c 2 -a 0 -i 0 -k MAC
r -t 0.315890100 -s 0 -d -1 -p ACK -e 38 -c 2 -a 0 -i 0 -k MAC
+ -t 0.315999400 -s 5 -d -1 -p RTS -e 44 -c 2 -a 0 -i 0 -k MAC 
- -t 0.315999400 -s 5 -d -1 -p RTS -e 44 -c 2 -a 0 -i 0 -k MAC
h -t 0.315999400 -s 5 -d -1 -p RTS -e 44 -c 2 -a 0 -i 0 -k MAC
r -t 0.316352100 -s 0 -d -1 -p RTS -e 44 -c 2 -a 0 -i 0 -k MAC
+ -t 0.316362100 -s 0 -d -1 -p CTS -e 38 -c 2 -a 0 -i 0 -k MAC 
- -t 0.316362100 -s 0 -d -1 -p CTS -e 38 -c 2 -a 0 -i 0 -k MAC
h -t 0.316362100 -s 0 -d -1 -p CTS -e 38 -c 2 -a 0 -i 0 -k MAC
r -t 0.316666800 -s 5 -d -1 -p CTS -e 38 -c 2 -a 0 -i 0 -k MAC
+ -t 0.316676800 -s 5 -d 0 -p cbr -e 1078 -c 2 -a 0 -i 3 -k MAC 
- -t 0.316676800 -s 5 -d 0 -p cbr -e 1078 -c 2 -a 0 -i 3 -k MAC
h -t 0.316676800 -s 5 -d 0 -p cbr -e 1078 -c 2 -a 0 -i 3 -k MAC
r -t 0.325301500 -s 0 -d 0 -p cbr -e 1020 -c 2 -a 0 -i 3 -k MAC
+ -t 0.325311500 -s 0 -d -1 -p ACK -e 38 -c 2 -a 0 -i 0 -k MAC 
- -t 0.325311500 -s 0 -d -1 -p ACK -e 38 -c 2 -a 0 -i 0 -k MAC
h -t 0.325311500 -s 0 -d -1 -p ACK -e 38 -c 2 -a 0 -i 0 -k MAC
r -t 0.325616200 -s 5 -d -1 -p ACK -e 38 -c 2 -a 0 -i 0 -k MAC
+ -t 0.326185500 -s 0 -d -1 -p RTS -e 44 -c 2 -a 0 -i 0 -k MAC 
- -t 0.326185500 -s 0 -d -1 -p RTS -e 44 -c 2 -a 0 -i 0 -k MAC
h -t 0.326185500 -s 0 -d -1 -p RTS -e 44 -c 2 -a 0 -i 0 -k MAC
r -t 0.326538200 -s 5 -d -1 -p RTS -e 44 -c 2 -a 0 -i 0 -k MAC
+ -t 0.326548200 -s 5 -d -1 -p CTS -e 38 -c 2 -a 0 -i 0 -k MAC 
- -t 0.326548200 -s 5 -d -1 -p CTS -e 38 -c 2 -a 0 -i 0 -k MAC
h -t 0.326548200 -s 5 -d -1 -p CTS -e 38 -c 2 -a 0 -i 0 -k MAC
r -t 0.326852900 -s 0 -d -1 -p CTS -e 38 -c 2 -a 0 -i 0 -k MAC
+ -t 0.326862900 -s 0 -d -1 -p ARP -e 86 -c 2 -a 0 -i 0 -k MAC 
- -t 0.326862900 -s 0 -d -1 -p ARP -e 86 -c 2 -a 0 -i 0 -k MAC
h -t 0.326862900 -s 0 -d -1 -p ARP -e 86 -c 2 -a 0 -i 0 -k MAC
r -t 0.327551600 -s 5 -d -1 -p ARP -e 28 -c 2 -a 0 -i 0 -k MAC
+ -t 0.327561600 -s 5 -d -1 -p ACK -e 38 -c 2 -a 0 -i 0 -k MAC 
- -t 0.327561600 -s 5 -d -1 -p ACK -e 38 -c 2 -a 0 -i 0 -k MAC
h -t 0.327561600 -s 5 -d -1 -p ACK -e 38 -c 2 -a 0 -i 0 -k MAC
r -t 0.327866300 -s 0 -d -1 -p ACK -e 38 -c 2 -a 0 -i 0 -k MAC
+ -t 0.328456300 -s 0 -d -1 -p RTS -e 44 -c 2 -a 0 -i 0 -k MAC 
- -t 0.328456300 -s 0 -d -1 -p RTS -e 44 -c 2 -a 0 -i 0 -k MAC
h -t 0.328456300 -s 0 -d -1 -p RTS -e 44 -c 2 -a 0 -i 0 -k MAC
r -t 0.328809000 -s 5 -d -1 -p RTS -e 44 -c 2 -a 0 -i 0 -k MAC
+ -t 0.328819000 -s 5 -d -1 -p CTS -e 38 -c 2 -a 0 -i 0 -k MAC 
- -t 0.328819000 -s 5 -d -1 -p CTS -e 38 -c 2 -a 0 -i 0 -k MAC
h -t 0.328819000 -s 5 -d -1 -p CTS -e 38 -c 2 -a 0 -i 0 -k MAC
r -t 0.329123700 -s 0 -d -1 -p CTS -e 38 -c 2 -a 0 -i 0 -k MAC
+ -t 0.329133700 -s 0 -d 5 -p cbr -e 1078 -c 2 -a 0 -i 2 -k MAC 
- -t 0.329133700 -s 0 -d 5 -p cbr -e 1078 -c 2 -a 0 -i 2 -k MAC
h -t 0.329133700 -s 0 -d 5 -p cbr -e 1078 -c 2 -a 0 -i 2 -k MAC
+ -t 0.330000000 -s 0 -d 5 -p cbr -e 1020 -c 2 -a 0 -i 4 -k RTR 
- -t 0.330000000 -s 0 -d 5 -p cbr -e 1020 -c 2 -a 0 -i 4 -k RTR
h -t 0.330000000 -s 0 -d 5 -p cbr -e 1020 -c 2 -a 0 -i 4 -k RTR
+ -t 0.330000000 -s 5 -d 0 -p cbr -e 1020 -c 2 -a 0 -i 5 -k RTR 
- -t 0.330000000 -s 5 -d 0 -p cbr -e 1020 -c 2 -a 0 -i 5 -k RTR
h -t 0.330000000 -s 5 -d 0 -p cbr -e 1020 -c 2 -a 0 -i 5 -k RTR
r -t 0.337758400 -s 5 -d 5 -p cbr -e 1020 -c 2 -a 0 -i 2 -k MAC
+ -t 0.337768400 -s 5 -d -1 -p ACK -e 38 -c 2 -a 0 -i 0 -k MAC 
- -t 0.337768400 -s 5 -d -1 -p ACK -e 38 -c 2 -a 0 -i 0 -k MAC
h -t 0.337768400 -s 5 -d -1 -p ACK -e 38 -c 2 -a 0 -i 0 -k MAC
r -t 0.338073100 -s 0 -d -1 -p ACK -e 38 -c 2 -a 0 -i 0 -k MAC
+ -t 0.338562400 -s 5 -d -1 -p RTS -e 44 -c 2 -a 0 -i 0 -k MAC 
- -t 0.338562400 -s 5 -d -1 -p RTS -e 44 -c 2 -a 0 -i 0 -k MAC
h -t 0.338562400 -s 5 -d -1 -p RTS -e 44 -c 2 -a 0 -i 0 -k MAC
r -t 0.338915100 -s 0 -d -1 -p RTS -e 44 -c 2 -a 0 -i 0 -k MAC
+ -t 0.338925100 -s 0 -d -1 -p CTS -e 38 -c 2 -a 0 -i 0 -k MAC 
- -t 0.338925100 -s 0 -d -1 -p CTS -e 38 -c 2 -a 0 -i 0 -k MAC
h -t 0.338925100 -s 0 -d -1 -p CTS -e 38 -c 2 -a 0 -i 0 -k MAC
r -t 0.339229800 -s 5 -d -1 -p CTS -e 38 -c 2 -a 0 -i 0 -k MAC
+ -t 0.339239800 -s 5 -d 0 -p cbr -e 1078 -c 2 -a 0 -i 5 -k MAC 
- -t 0.339239800 -s 5 -d 0 -p cbr -e 1078 -c 2 -a 0 -i 5 -k MAC
h -t 0.339239800 -s 5 -d 0 -p cbr -e 1078 -c 2 -a 0 -i 5 -k MAC
+ -t 0.345000000 -s 0 -d 5 -p cbr -e 1020 -c 2 -a 0 -i 6 -k RTR 
- -t 0.345000000 -s 0 -d 5 -p cbr -e 1020 -c 2 -a 0 -i 6 -k RTR
h -t 0.345000000 -s 0 -d 5 -p cbr -e 1020 -c 2 -a 0 -i 6 -k RTR
+ -t 0.345000000 -s 5 -d 0 -p cbr -e 1020 -c 2 -a 0 -i 7 -k RTR 
- -t 0.345000000 -s 5 -d 0 -p cbr -e 1020 -c 2 -a 0 -i 7 -k RTR
h -t 0.345000000 -s 5 -d 0 -p cbr -e 1020 -c 2 -a 0 -i 7 -k RTR
r -t 0.347864500 -s 0 -d 0 -p cbr -e 1020 -c 2 -a 0 -i 5 -k MAC
+ -t 0.347874500 -s 0 -d -1 -p ACK -e 38 -c 2 -a 0 -i 0 -k MAC 
- -t 0.347874500 -s 0 -d -1 -p ACK -e 38 -c 2 -a 0 -i 0 -k MAC
h -t 0.347874500 -s 0 -d -1 -p ACK -e 38 -c 2 -a 0 -i 0 -k MAC
r -t 0.348179200 -s 5 -d -1 -p ACK -e 38 -c 2 -a 0 -i 0 -k MAC
+ -t 0.348308500 -s 0 -d -1 -p RTS -e 44 -c 2 -a 0 -i 0 -k MAC 
- -t 0.348308500 -s 0 -d -1 -p RTS -e 44 -c 2 -a 0 -i 0 -k MAC
h -t 0.348308500 -s 0 -d -1 -p RTS -e 44 -c 2 -a 0 -i 0 -k MAC
r -t 0.348661200 -s 5 -d -1 -p RTS -e 44 -c 2 -a 0 -i 0 -k MAC
+ -t 0.348671200 -s 5 -d -1 -p CTS -e 38 -c 2 -a 0 -i 0 -k MAC 
- -t 0.348671200 -s 5 -d -1 -p CTS -e 38 -c 2 -a 0 -i 0 -k MAC
h -t 0.348671200 -s 5 -d -1 -p CTS -e 38 -c 2 -a 0 -i 0 -k MAC
r -t 0.348975900 -s 0 -d -1 -p CTS -e 38 -c 2 -a 0 -i 0 -k MAC
+ -t 0.348985900 -s 0 -d 5 -p cbr -e 1078 -c 2 -a 0 -i 4 -k MAC 
- -t 0.348985900 -s 0 -d 5 -p cbr -e 1078 -c 2 -a 0 -i 4 -k MAC
h -t 0.348985900 -s 0 -d 5 -p cbr -e 1078 -c 2 -a 0 -i 4 -k MAC
r -t 0.357610600 -s 5 -d 5 -p cbr -e 1020 -c 2 -a 0 -i 4 -k MAC
+ -t 0.357620600 -s 5 -d -1 -p ACK -e 38 -c 2 -a 0 -i 0 -k MAC 
- -t 0.357620600 -s 5 -d -1 -p ACK -e 38 -c 2 -a 0 -i 0 -k MAC
h -t 0.357620600 -s 5 -d -1 -p ACK -e 38 -c 2 -a 0 -i 0 -k MAC
r -t 0.357925300 -s 0 -d -1 -p ACK -e 38 -c 2 -a 0 -i 0 -k MAC
+ -t 0.357975300 -s 0 -d -1 -p RTS -e 44 -c 2 -a 0 -i 0 -k MAC 
- -t 0.357975300 -s 0 -d -1 -p RTS -e 44 -c 2 -a 0 -i 0 -k MAC
h -t 0.357975300 -s 0 -d -1 -p RTS -e 44 -c 2 -a 0 -i 0 -k MAC
r -t 0.358328000 -s 5 -d -1 -p RTS -e 44 -c 2 -a 0 -i 0 -k MAC
+ -t 0.358338000 -s 5 -d -1 -p CTS -e 38 -c 2 -a 0 -i 0 -k MAC 
- -t 0.358338000 -s 5 -d -1 -p CTS -e 38 -c 2 -a 0 -i 0 -k MAC
h -t 0.358338000 -s 5 -d -1 -p CTS -e 38 -c 2 -a 0 -i 0 -k MAC
r -t 0.358642700 -s 0 -d -1 -p CTS -e 38 -c 2 -a 0 -i 0 -k MAC
+ -t 0.358652700 -s 0 -d 5 -p cbr -e 1078 -c 2 -a 0 -i 6 -k MAC 
- -t 0.358652700 -s 0 -d 5 -p cbr -e 1078 -c 2 -a 0 -i 6 -k MAC
h -t 0.358652700 -s 0 -d 5 -p cbr -e 1078 -c 2 -a 0 -i 6 -k MAC
+ -t 0.360000000 -s 0 -d 5 -p cbr -e 1020 -c 2 -a 0 -i 8 -k RTR 
- -t 0.360000000 -s 0 -d 5 -p cbr -e 1020 -c 2 -a 0 -i 8 -k RTR
h -t 0.360000000 -s 0 -d 5 -p cbr -e 1020 -c 2 -a 0 -i 8 -k RTR
+ -t 0.360000000 -s 5 -d 0 -p cbr -e 1020 -c 2 -a 0 -i 9 -k RTR 
- -t 0.360000000 -s 5 -d 0 -p cbr -e 1020 -c 2 -a 0 -i 9 -k RTR
h -t 0.360000000 -s 5 -d 0 -p cbr -e 1020 -c 2 -a 0 -i 9 -k RTR
r -t 0.367277400 -s 5 -d 5 -p cbr -e 1020 -c 2 -a 0 -i 6 -k MAC
+ -t 0.367287400 -s 5 -d -1 -p ACK -e 38 -c 2 -a 0 -i 0 -k MAC 
- -t 0.367287400 -s 5 -d -1 -p ACK -e 38 -c 2 -a 0 -i 0 -k MAC
h -t 0.367287400 -s 5 -d -1 -p ACK -e 38 -c 2 -a 0 -i 0 -k MAC
r -t 0.367592100 -s 0 -d -1 -p ACK -e 38 -c 2 -a 0 -i 0 -k MAC
+ -t 0.367782100 -s 0 -d -1 -p RTS -e 44 -c 2 -a 0 -i 0 -k MAC 
- -t 0.367782100 -s 0 -d -1 -p RTS -e 44 -c 2 -a 0 -i 0 -k MAC
h -t 0.367782100 -s 0 -d -1 -p RTS -e 44 -c 2 -a 0 -i 0 -k MAC
r -t 0.368134800 -s 5 -d -1 -p RTS -e 44 -c 2 -a 0 -i 0 -k MAC
+ -t 0.368144800 -s 5 -d -1 -p CTS -e 38 -c 2 -a 0 -i 0 -k MAC 
- -t 0.368144800 -s 5 -d -1 -p CTS -e 38 -c 2 -a 0 -i 0 -k MAC
h -t 0.368144800 -s 5 -d -1 -p CTS -e 38 -c 2 -a 0 -i 0 -k MAC
r -t 0.368449500 -s 0 -d -1 -p CTS -e 38 -c 2 -a 0 -i 0 -k MAC
+ -t 0.368459500 -s 0 -d 5 -p cbr -e 1078 -c 2 -a 0 -i 8 -k MAC 
- -t 0.368459500 -s 0 -d 5 -p cbr -e 1078 -c 2 -a 0 -i 8 -k MAC
h -t 0.368459500 -s 0 -d 5 -p cbr -e 1078 -c 2 -a 0 -i 8 -k MAC
+ -t 0.375000000 -s 0 -d 5 -p cbr -e 1020 -c 2 -a 0 -i 10 -k RTR 
- -t 0.375000000 -s 0 -d 5 -p cbr -e 1020 -c 2 -a 0 -i 10 -k RTR
h -t 0.375000000 -s 0 -d 5 -p cbr -e 1020 -c 2 -a 0 -i 10 -k RTR
+ -t 0.375000000 -s 5 -d 0 -p cbr -e 1020 -c 2 -a 0 -i 11 -k RTR 
- -t 0.375000000 -s 5 -d 0 -p cbr -e 1020 -c 2 -a 0 -i 11 -k RTR
h -t 0.375000000 -s 5 -d 0 -p cbr -e 1020 -c 2 -a 0 -i 11 -k RTR
r -t 0.377084200 -s 5 -d 5 -p cbr -e 1020 -c 2 -a 0 -i 8 -k MAC
+ -t 0.377094200 -s 5 -d -1 -p ACK -e 38 -c 2 -a 0 -i 0 -k MAC 
- -t 0.377094200 -s 5 -d -1 -p ACK -e 38 -c 2 -a 0 -i 0 -k MAC
h -t 0.377094200 -s 5 -d -1 -p ACK -e 38 -c 2 -a 0 -i 0 -k MAC
r -t 0.377398900 -s 0 -d -1 -p ACK -e 38 -c 2 -a 0 -i 0 -k MAC
+ -t 0.377468200 -s 5 -d -1 -p RTS -e 44 -c 2 -a 0 -i 0 -k MAC 
- -t 0.377468200 -s 5 -d -1 -p RTS -e 44 -c 2 -a 0 -i 0 -k MAC
h -t 0.377468200 -s 5 -d -1 -p RTS -e 44 -c 2 -a 0 -i 0 -k MAC
r -t 0.377820900 -s 0 -d -1 -p RTS -e 44 -c 2 -a 0 -i 0 -k MAC
+ -t 0.377830900 -s 0 -d -1 -p CTS -e 38 -c 2 -a 0 -i 0 -k MAC 
- -t 0.377830900 -s 0 -d -1 -p CTS -e 38 -c 2 -a 0 -i 0 -k MAC
h -t 0.377830900 -s 0 -d -1 -p CTS -e 38 -c 2 -a 0 -i 0 -k MAC
r -t 0.378135600 -s 5 -d -1 -p CTS -e 38 -c 2 -a 0 -i 0 -k MAC
+ -t 0.378145600 -s 5 -d 0 -p cbr -e 1078 -c 2 -a 0 -i 7 -k MAC 
- -t 0.378145600 -s 5 -d 0 -p cbr -e 1078 -c 2 -a 0 -i 7 -k MAC
h -t 0.378145600 -s 5 -d 0 -p cbr -e 1078 -c 2 -a 0 -i 7 -k MAC
r -t 0.386770300 -s 0 -d 0 -p cbr -e 1020 -c 2 -a 0 -i 7 -k MAC
+ -t 0.386780300 -s 0 -d -1 -p ACK -e 38 -c 2 -a 0 -i 0 -k MAC 
- -t 0.386780300 -s 0 -d -1 -p ACK -e 38 -c 2 -a 0 -i 0 -k MAC
h -t 0.386780300 -s 0 -d -1 -p ACK -e 38 -c 2 -a 0 -i 0 -k MAC
r -t 0.387085000 -s 5 -d -1 -p ACK -e 38 -c 2 -a 0 -i 0 -k MAC
+ -t 0.387375000 -s 5 -d -1 -p RTS -e 44 -c 2 -a 0 -i 0 -k MAC 
- -t 0.387375000 -s 5 -d -1 -p RTS -e 44 -c 2 -a 0 -i 0 -k MAC
h -t 0.387375000 -s 5 -d -1 -p RTS -e 44 -c 2 -a 0 -i 0 -k MAC
r -t 0.387727700 -s 0 -d -1 -p RTS -e 44 -c 2 -a 0 -i 0 -k MAC
+ -t 0.387737700 -s 0 -d -1 -p CTS -e 38 -c 2 -a 0 -i 0 -k MAC 
- -t 0.387737700 -s 0 -d -1 -p CTS -e 38 -c 2 -a 0 -i 0 -k MAC
h -t 0.387737700 -s 0 -d -1 -p CTS -e 38 -c 2 -a 0 -i 0 -k MAC
r -t 0.388042400 -s 5 -d -1 -p CTS -e 38 -c 2 -a 0 -i 0 -k MAC
+ -t 0.388052400 -s 5 -d 0 -p cbr -e 1078 -c 2 -a 0 -i 9 -k MAC 
- -t 0.388052400 -s 5 -d 0 -p cbr -e 1078 -c 2 -a 0 -i 9 -k MAC
h -t 0.388052400 -s 5 -d 0 -p cbr -e 1078 -c 2 -a 0 -i 9 -k MAC
+ -t 0.390000000 -s 0 -d 5 -p cbr -e 1020 -c 2 -a 0 -i 12 -k RTR 
- -t 0.390000000 -s 0 -d 5 -p cbr -e 1020 -c 2 -a 0 -i 12 -k RTR
h -t 0.390000000 -s 0 -d 5 -p cbr -e 1020 -c 2 -a 0 -i 12 -k RTR
+ -t 0.390000000 -s 5 -d 0 -p cbr -e 1020 -c 2 -a 0 -i 13 -k RTR 
- -t 0.390000000 -s 5 -d 0 -p cbr -e 1020 -c 2 -a 0 -i 13 -k RTR
h -t 0.390000000 -s 5 -d 0 -p cbr -e 1020 -c 2 -a 0 -i 13 -k RTR
r -t 0.396677100 -s 0 -d 0 -p cbr -e 1020 -c 2 -a 0 -i 9 -k MAC
+ -t 0.396687100 -s 0 -d -1 -p ACK -e 38 -c 2 -a 0 -i 0 -k MAC 
- -t 0.396687100 -s 0 -d -1 -p ACK -e 38 -c 2 -a 0 -i 0 -k MAC
h -t 0.396687100 -s 0 -d -1 -p ACK -e 38 -c 2 -a 0 -i 0 -k MAC
r -t 0.396991800 -s 5 -d -1 -p ACK -e 38 -c 2 -a 0 -i 0 -k MAC
+ -t 0.397181800 -s 5 -d -1 -p RTS -e 44 -c 2 -a 0 -i 0 -k MAC 
- -t 0.397181800 -s 5 -d -1 -p RTS -e 44 -c 2 -a 0 -i 0 -k MAC
h -t 0.397181800 -s 5 -d -1 -p RTS -e 44 -c 2 -a 0 -i 0 -k MAC
r -t 0.397534500 -s 0 -d -1 -p RTS -e 44 -c 2 -a 0 -i 0 -k MAC
+ -t 0.397544500 -s 0 -d -1 -p CTS -e 38 -c 2 -a 0 -i 0 -k MAC 
- -t 0.397544500 -s 0 -d -1 -p CTS -e 38 -c 2 -a 0 -i 0 -k MAC
h -t 0.397544500 -s 0 -d -1 -p CTS -e 38 -c 2 -a 0 -i 0 -k MAC
r -t 0.397849200 -s 5 -d -1 -p CTS -e 38 -c 2 -a 0 -i 0 -k MAC
+ -t 0.397859200 -s 5 -d 0 -p cbr -e 1078 -c 2 -a 0 -i 11 -k MAC 
- -t 0.397859200 -s 5 -d 0 -p cbr -e 1078 -c 2 -a 0 -i 11 -k MAC
h -t 0.397859200 -s 5 -d 0 -p cbr -e 1078 -c 2 -a 0 -i 11 -k MAC
+ -t 0.405000000 -s 0 -d 5 -p cbr -e 1020 -c 2 -a 0 -i 14 -k RTR 
- -t 0.405000000 -s 0 -d 5 -p cbr -e 1020 -c 2 -a 0 -i 14 -k RTR
h -t 0.405000000 -s 0 -d 5 -p cbr -e 1020 -c 2 -a 0 -i 14 -k RTR
+ -t 0.405000000 -s 5 -d 0 -p cbr -e 1020 -c 2 -a 0 -i 15 -k RTR 
- -t 0.405000000 -s 5 -d 0 -p cbr -e 1020 -c 2 -a 0 -i 15 -k RTR
h -t 0.405000000 -s 5 -d 0 -p cbr -e 1020 -c 2 -a 0 -i 15 -k RTR
r -t 0.406483900 -s 0 -d 0 -p cbr -e 1020 -c 2 -a 0 -i 11 -k MAC
+ -t 0.406493900 -s 0 -d -1 -p ACK -e 38 -c 2 -a 0 -i 0 -k MAC 
- -t 0.406493900 -s 0 -d -1 -p ACK -e 38 -c 2 -a 0 -i 0 -k MAC
h -t 0.406493900 -s 0 -d -1 -p ACK -e 38 -c 2 -a 0 -i 0 -k MAC
r -t 0.406798600 -s 5 -d -1 -p ACK -e 38 -c 2 -a 0 -i 0 -k MAC
+ -t 0.406987900 -s 0 -d -1 -p RTS -e 44 -c 2 -a 0 -i 0 -k MAC 
- -t 0.406987900 -s 0 -d -1 -p RTS -e 44 -c 2 -a 0 -i 0 -k MAC
h -t 0.406987900 -s 0 -d -1 -p RTS -e 44 -c 2 -a 0 -i 0 -k MAC
r -t 0.407340600 -s 5 -d -1 -p RTS -e 44 -c 2 -a 0 -i 0 -k MAC
+ -t 0.407350600 -s 5 -d -1 -p CTS -e 38 -c 2 -a 0 -i 0 -k MAC 
- -t 0.407350600 -s 5 -d -1 -p CTS -e 38 -c 2 -a 0 -i 0 -k MAC
h -t 0.407350600 -s 5 -d -1 -p CTS -e 38 -c 2 -a 0 -i 0 -k MAC
r -t 0.407655300 -s 0 -d -1 -p CTS -e 38 -c 2 -a 0 -i 0 -k MAC
+ -t 0.407665300 -s 0 -d 5 -p cbr -e 1078 -c 2 -a 0 -i 10 -k MAC 
- -t 0.407665300 -s 0 -d 5 -p cbr -e 1078 -c 2 -a 0 -i 10 -k MAC
h -t 0.407665300 -s 0 -d 5 -p cbr -e 1078 -c 2 -a 0 -i 10 -k MAC
r -t 0.416290000 -s 5 -d 5 -p cbr -e 1020 -c 2 -a 0 -i 10 -k MAC
+ -t 0.416300000 -s 5 -d -1 -p ACK -e 38 -c 2 -a 0 -i 0 -k MAC 
- -t 0.416300000 -s 5 -d -1 -p ACK -e 38 -c 2 -a 0 -i 0 -k MAC
h -t 0.416300000 -s 5 -d -1 -p ACK -e 38 -c 2 -a 0 -i 0 -k MAC
r -t 0.416604700 -s 0 -d -1 -p ACK -e 38 -c 2 -a 0 -i 0 -k MAC
+ -t 0.417054000 -s 5 -d -1 -p RTS -e 44 -c 2 -a 0 -i 0 -k MAC 
- -t 0.417054000 -s 5 -d -1 -p RTS -e 44 -c 2 -a 0 -i 0 -k MAC
h -t 0.417054000 -s 5 -d -1 -p RTS -e 44 -c 2 -a 0 -i 0 -k MAC
r -t 0.417406700 -s 0 -d -1 -p RTS -e 44 -c 2 -a 0 -i 0 -k MAC
+ -t 0.417416700 -s 0 -d -1 -p CTS -e 38 -c 2 -a 0 -i 0 -k MAC 
- -t 0.417416700 -s 0 -d -1 -p CTS -e 38 -c 2 -a 0 -i 0 -k MAC
h -t 0.417416700 -s 0 -d -1 -p CTS -e 38 -c 2 -a 0 -i 0 -k MAC
r -t 0.417721400 -s 5 -d -1 -p CTS -e 38 -c 2 -a 0 -i 0 -k MAC
+ -t 0.417731400 -s 5 -d 0 -p cbr -e 1078 -c 2 -a 0 -i 13 -k MAC 
- -t 0.417731400 -s 5 -d 0 -p cbr -e 1078 -c 2 -a 0 -i 13 -k MAC
h -t 0.417731400 -s 5 -d 0 -p cbr -e 1078 -c 2 -a 0 -i 13 -k MAC
+ -t 0.420000000 -s 0 -d 5 -p cbr -e 1020 -c 2 -a 0 -i 16 -k RTR 
- -t 0.420000000 -s 0 -d 5 -p cbr -e 1020 -c 2 -a 0 -i 16 -k RTR
h -t 0.420000000 -s 0 -d 5 -p cbr -e 1020 -c 2 -a 0 -i 16 -k RTR
+ -t 0.420000000 -s 5 -d 0 -p cbr -e 1020 -c 2 -a 0 -i 17 -k RTR 
- -t 0.420000000 -s 5 -d 0 -p cbr -e 1020 -c 2 -a 0 -i 17 -k RTR
h -t 0.420000000 -s 5 -d 0 -p cbr -e 1020 -c 2 -a 0 -i 17 -k RTR
r -t 0.426356100 -s 0 -d 0 -p cbr -e 1020 -c 2 -a 0 -i 13 -k MAC
+ -t 0.426366100 -s 0 -d -1 -p ACK -e 38 -c 2 -a 0 -i 0 -k MAC 
- -t 0.426366100 -s 0 -d -1 -p ACK -e 38 -c 2 -a 0 -i 0 -k MAC
h -t 0.426366100 -s 0 -d -1 -p ACK -e 38 -c 2 -a 0 -i 0 -k MAC
r -t 0.426670800 -s 5 -d -1 -p ACK -e 38 -c 2 -a 0 -i 0 -k MAC
+ -t 0.426740800 -s 5 -d -1 -p RTS -e 44 -c 2 -a 0 -i 0 -k MAC 
- -t 0.426740800 -s 5 -d -1 -p RTS -e 44 -c 2 -a 0 -i 0 -k MAC
h -t 0.426740800 -s 5 -d -1 -p RTS -e 44 -c 2 -a 0 -i 0 -k MAC
r -t 0.427093500 -s 0 -d -1 -p RTS -e 44 -c 2 -a 0 -i 0 -k MAC
+ -t 0.427103500 -s 0 -d -1 -p CTS -e 38 -c 2 -a 0 -i 0 -k MAC 
- -t 0.427103500 -s 0 -d -1 -p CTS -e 38 -c 2 -a 0 -i 0 -k MAC
h -t 0.427103500 -s 0 -d -1 -p CTS -e 38 -c 2 -a 0 -i 0 -k MAC
r -t 0.427408200 -s 5 -d -1 -p CTS -e 38 -c 2 -a 0 -i 0 -k MAC
+ -t 0.427418200 -s 5 -d 0 -p cbr -e 1078 -c 2 -a 0 -i 15 -k MAC 
- -t 0.427418200 -s 5 -d 0 -p cbr -e 1078 -c 2 -a 0 -i 15 -k MAC
h -t 0.427418200 -s 5 -d 0 -p cbr -e 1078 -c 2 -a 0 -i 15 -k MAC
+ -t 0.435000000 -s 0 -d 5 -p cbr -e 1020 -c 2 -a 0 -i 18 -k RTR 
- -t 0.435000000 -s 0 -d 5 -p cbr -e 1020 -c 2 -a 0 -i 18 -k RTR
h -t 0.435000000 -s 0 -d 5 -p cbr -e 1020 -c 2 -a 0 -i 18 -k RTR
+ -t 0.435000000 -s 5 -d 0 -p cbr -e 1020 -c 2 -a 0 -i 19 -k RTR 
- -t 0.435000000 -s 5 -d 0 -p cbr -e 1020 -c 2 -a 0 -i 19 -k RTR
h -t 0.435000000 -s 5 -d 0 -p cbr -e 1020 -c 2 -a 0 -i 19 -k RTR
r -t 0.436042900 -s 0 -d 0 -p cbr -e 1020 -c 2 -a 0 -i 15 -k MAC
+ -t 0.436052900 -s 0 -d -1 -p ACK -e 38 -c 2 -a 0 -i 0 -k MAC 
- -t 0.436052900 -s 0 -d -1 -p ACK -e 38 -c 2 -a 0 -i 0 -k MAC
h -t 0.436052900 -s 0 -d -1 -p ACK -e 38 -c 2 -a 0 -i 0 -k MAC
r -t 0.436357600 -s 5 -d -1 -p ACK -e 38 -c 2 -a 0 -i 0 -k MAC
+ -t 0.436447600 -s 5 -d -1 -p RTS -e 44 -c 2 -a 0 -i 0 -k MAC 
- -t 0.436447600 -s 5 -d -1 -p RTS -e 44 -c 2 -a 0 -i 0 -k MAC
h -t 0.436447600 -s 5 -d -1 -p RTS -e 44 -c 2 -a 0 -i 0 -k MAC
r -t 0.436800300 -s 0 -d -1 -p RTS -e 44 -c 2 -a 0 -i 0 -k MAC
+ -t 0.436810300 -s 0 -d -1 -p CTS -e 38 -c 2 -a 0 -i 0 -k MAC 
- -t 0.436810300 -s 0 -d -1 -p CTS -e 38 -c 2 -a 0 -i 0 -k MAC
h -t 0.436810300 -s 0 -d -1 -p CTS -e 38 -c 2 -a 0 -i 0 -k MAC
r -t 0.437115000 -s 5 -d -1 -p CTS -e 38 -c 2 -a 0 -i 0 -k MAC
+ -t 0.437125000 -s 5 -d 0 -p cbr -e 1078 -c 2 -a 0 -i 17 -k MAC 
- -t 0.437125000 -s 5 -d 0 -p cbr -e 1078 -c 2 -a 0 -i 17 -k MAC
h -t 0.437125000 -s 5 -d 0 -p cbr -e 1078 -c 2 -a 0 -i 17 -k MAC
r -t 0.445749700 -s 0 -d 0 -p cbr -e 1020 -c 2 -a 0 -i 17 -k MAC
+ -t 0.445759700 -s 0 -d -1 -p ACK -e 38 -c 2 -a 0 -i 0 -k MAC 
- -t 0.445759700 -s 0 -d -1 -p ACK -e 38 -c 2 -a 0 -i 0 -k MAC
h -t 0.445759700 -s 0 -d -1 -p ACK -e 38 -c 2 -a 0 -i 0 -k MAC
r -t 0.446064400 -s 5 -d -1 -p ACK -e 38 -c 2 -a 0 -i 0 -k MAC
+ -t 0.446213700 -s 0 -d -1 -p RTS -e 44 -c 2 -a 0 -i 0 -k MAC 
- -t 0.446213700 -s 0 -d -1 -p RTS -e 44 -c 2 -a 0 -i 0 -k MAC
h -t 0.446213700 -s 0 -d -1 -p RTS -e 44 -c 2 -a 0 -i 0 -k MAC
r -t 0.446566400 -s 5 -d -1 -p RTS -e 44 -c 2 -a 0 -i 0 -k MAC
+ -t 0.446576400 -s 5 -d -1 -p CTS -e 38 -c 2 -a 0 -i 0 -k MAC 
- -t 0.446576400 -s 5 -d -1 -p CTS -e 38 -c 2 -a 0 -i 0 -k MAC
h -t 0.446576400 -s 5 -d -1 -p CTS -e 38 -c 2 -a 0 -i 0 -k MAC
r -t 0.446881100 -s 0 -d -1 -p CTS -e 38 -c 2 -a 0 -i 0 -k MAC
+ -t 0.446891100 -s 0 -d 5 -p cbr -e 1078 -c 2 -a 0 -i 12 -k MAC 
- -t 0.446891100 -s 0 -d 5 -p cbr -e 1078 -c 2 -a 0 -i 12 -k MAC
h -t 0.446891100 -s 0 -d 5 -p cbr -e 1078 -c 2 -a 0 -i 12 -k MAC
+ -t 0.450000000 -s 0 -d 5 -p cbr -e 1020 -c 2 -a 0 -i 20 -k RTR 
- -t 0.450000000 -s 0 -d 5 -p cbr -e 1020 -c 2 -a 0 -i 20 -k RTR
h -t 0.450000000 -s 0 -d 5 -p cbr -e 1020 -c 2 -a 0 -i 20 -k RTR
+ -t 0.450000000 -s 5 -d 0 -p cbr -e 1020 -c 2 -a 0 -i 21 -k RTR 
- -t 0.450000000 -s 5 -d 0 -p cbr -e 1020 -c 2 -a 0 -i 21 -k RTR
h -t 0.450000000 -s 5 -d 0 -p cbr -e 1020 -c 2 -a 0 -i 21 -k RTR
r -t 0.455515800 -s 5 -d 5 -p cbr -e 1020 -c 2 -a 0 -i 12 -k MAC
+ -t 0.455525800 -s 5 -d -1 -p ACK -e 38 -c 2 -a 0 -i 0 -k MAC 
- -t 0.455525800 -s 5 -d -1 -p ACK -e 38 -c 2 -a 0 -i 0 -k MAC
h -t 0.455525800 -s 5 -d -1 -p ACK -e 38 -c 2 -a 0 -i 0 -k MAC
r -t 0.455830500 -s 0 -d -1 -p ACK -e 38 -c 2 -a 0 -i 0 -k MAC
+ -t 0.456320500 -s 0 -d -1 -p RTS -e 44 -c 2 -a 0 -i 0 -k MAC 
- -t 0.456320500 -s 0 -d -1 -p RTS -e 44 -c 2 -a 0 -i 0 -k MAC
h -t 0.456320500 -s 0 -d -1 -p RTS -e 44 -c 2 -a 0 -i 0 -k MAC
r -t 0.456673200 -s 5 -d -1 -p RTS -e 44 -c 2 -a 0 -i 0 -k MAC
+ -t 0.456683200 -s 5 -d -1 -p CTS -e 38 -c 2 -a 0 -i 0 -k MAC 
- -t 0.456683200 -s 5 -d -1 -p CTS -e 38 -c 2 -a 0 -i 0 -k MAC
h -t 0.456683200 -s 5 -d -1 -p CTS -e 38 -c 2 -a 0 -i 0 -k MAC
r -t 0.456987900 -s 0 -d -1 -p CTS -e 38 -c 2 -a 0 -i 0 -k MAC
+ -t 0.456997900 -s 0 -d 5 -p cbr -e 1078 -c 2 -a 0 -i 14 -k MAC 
- -t 0.456997900 -s 0 -d 5 -p cbr -e 1078 -c 2 -a 0 -i 14 -k MAC
h -t 0.456997900 -s 0 -d 5 -p cbr -e 1078 -c 2 -a 0 -i 14 -k MAC
+ -t 0.465000000 -s 0 -d 5 -p cbr -e 1020 -c 2 -a 0 -i 22 -k RTR 
- -t 0.465000000 -s 0 -d 5 -p cbr -e 1020 -c 2 -a 0 -i 22 -k RTR
h -t 0.465000000 -s 0 -d 5 -p cbr -e 1020 -c 2 -a 0 -i 22 -k RTR
+ -t 0.465000000 -s 5 -d 0 -p cbr -e 1020 -c 2 -a 0 -i 23 -k RTR 
- -t 0.465000000 -s 5 -d 0 -p cbr -e 1020 -c 2 -a 0 -i 23 -k RTR
h -t 0.465000000 -s 5 -d 0 -p cbr -e 1020 -c 2 -a 0 -i 23 -k RTR
r -t 0.465622600 -s 5 -d 5 -p cbr -e 1020 -c 2 -a 0 -i 14 -k MAC
+ -t 0.465632600 -s 5 -d -1 -p ACK -e 38 -c 2 -a 0 -i 0 -k MAC 
- -t 0.465632600 -s 5 -d -1 -p ACK -e 38 -c 2 -a 0 -i 0 -k MAC
h -t 0.465632600 -s 5 -d -1 -p ACK -e 38 -c 2 -a 0 -i 0 -k MAC
r -t 0.465937300 -s 0 -d -1 -p ACK -e 38 -c 2 -a 0 -i 0 -k MAC
+ -t 0.466006600 -s 5 -d -1 -p RTS -e 44 -c 2 -a 0 -i 0 -k MAC 
- -t 0.466006600 -s 5 -d -1 -p RTS -e 44 -c 2 -a 0 -i 0 -k MAC
h -t 0.466006600 -s 5 -d -1 -p RTS -e 44 -c 2 -a 0 -i 0 -k MAC
r -t 0.466359300 -s 0 -d -1 -p RTS -e 44 -c 2 -a 0 -i 0 -k MAC