M 0.00000 0 (100.00, 100.00, 0.00), (100.00, 100.00), 2000.00
M 0.00000 1 (300.00, 200.00, 0.00), (300.00, 410.00), 2000.00
M 0.00000 2 (500.00, 200.00, 0.00), (500.00, 410.00), 2000.00
M 0.00000 3 (700.00, 200.00, 0.00), (700.00, 410.00), 2000.00
M 0.00000 4 (900.00, 200.00, 0.00), (900.00, 410.00), 2000.00
M 0.00000 5 (100.00, 100.00, 0.00), (310.00, 100.00), 2000.00
r 0.300000000 _0_ RTR  --- 0 cbr 1000 [0 0 0 0] ------- [0:1 5:0 32 0] [0] 0 0
r 0.300000000 _5_ RTR  --- 1 cbr 1000 [0 0 0 0] ------- [5:1 0:0 32 0] [0] 0 0
s 0.300000000 _0_ RTR  --- 0 AODV 48 [0 0 0 0] ------- [0:255 -1:255 30 0] [0x2 1 1 [5 0] [0 4]] (REQUEST)
s 0.300000000 _5_ RTR  --- 0 AODV 48 [0 0 0 0] ------- [5:255 -1:255 30 0] [0x2 1 1 [0 0] [5 4]] (REQUEST)
s 0.300575000 _5_ MAC  --- 0 AODV 106 [0 ffffffff 5 800] ------- [5:255 -1:255 30 0] [0x2 1 1 [0 0] [5 4]] (REQUEST)
r 0.301423700 _0_ MAC  --- 0 AODV 48 [0 ffffffff 5 800] ------- [5:255 -1:255 30 0] [0x2 1 1 [0 0] [5 4]] (REQUEST)
r 0.301448700 _0_ RTR  --- 0 AODV 48 [0 ffffffff 5 800] ------- [5:255 -1:255 30 0] [0x2 1 1 [0 0] [5 4]] (REQUEST)
s 0.301448700 _0_ RTR  --- 0 cbr 1020 [0 0 0 0] ------- [0:1 5:0 30 5] [0] 0 0
s 0.301448700 _0_ RTR  --- 0 AODV 44 [0 0 0 0] ------- [0:255 5:255 30 5] [0x4 1 [0 6] 10.000000] (REPLY)
D 0.301448700 _0_ IFQ  ARP 0 cbr 1020 [0 0 0 800] ------- [0:1 5:0 30 5] [0] 0 0
s 0.301553700 _0_ MAC  --- 0 AODV 106 [0 ffffffff 0 800] ------- [0:255 -1:255 30 0] [0x2 1 1 [5 0] [0 4]] (REQUEST)
r 0.302402400 _5_ MAC  --- 0 AODV 48 [0 ffffffff 0 800] ------- [0:255 -1:255 30 0] [0x2 1 1 [5 0] [0 4]] (REQUEST)
r 0.302427400 _5_ RTR  --- 0 AODV 48 [0 ffffffff 0 800] ------- [0:255 -1:255 30 0] [0x2 1 1 [5 0] [0 4]] (REQUEST)
s 0.302427400 _5_ RTR  --- 1 cbr 1020 [0 0 0 0] ------- [5:1 0:0 30 0] [0] 0 0
s 0.302427400 _5_ RTR  --- 0 AODV 44 [0 0 0 0] ------- [5:255 0:255 30 0] [0x4 1 [5 6] 10.000000] (REPLY)
D 0.302427400 _5_ IFQ  ARP 1 cbr 1020 [0 0 5 800] ------- [5:1 0:0 30 0] [0] 0 0
s 0.302552400 _5_ MAC  --- 0 ARP 86 [0 ffffffff 5 806] ------- [REQUEST 5/5 0/0]
r 0.303241100 _0_ MAC  --- 0 ARP 28 [0 ffffffff 5 806] ------- [REQUEST 5/5 0/0]
s 0.303431100 _0_ MAC  --- 0 ARP 86 [0 ffffffff 0 806] ------- [REQUEST 0/0 0/5]
r 0.304119800 _5_ MAC  --- 0 ARP 28 [0 ffffffff 0 806] ------- [REQUEST 0/0 0/5]
s 0.304209800 _5_ MAC  --- 0 ARP 86 [0 ffffffff 5 806] ------- [REQUEST 5/5 0/0]
r 0.304898500 _0_ MAC  --- 0 ARP 28 [0 ffffffff 5 806] ------- [REQUEST 5/5 0/0]
s 0.304967800 _5_ MAC  --- 0 RTS 44 [5ae 0 5 0] 
r 0.305320500 _0_ MAC  --- 0 RTS 44 [5ae 0 5 0] 
s 0.305330500 _0_ MAC  --- 0 CTS 38 [474 5 0 0] 
r 0.305635200 _5_ MAC  --- 0 CTS 38 [474 5 0 0] 
s 0.305645200 _5_ MAC  --- 0 AODV 102 [13a 0 5 800] ------- [5:255 0:255 30 0] [0x4 1 [5 6] 10.000000] (REPLY)
r 0.306461900 _0_ MAC  --- 0 AODV 44 [13a 0 5 800] ------- [5:255 0:255 30 0] [0x4 1 [5 6] 10.000000] (REPLY)
s 0.306471900 _0_ MAC  --- 0 ACK 38 [0 5 0 0] 
r 0.306486900 _0_ RTR  --- 0 AODV 44 [13a 0 5 800] ------- [5:255 0:255 30 0] [0x4 1 [5 6] 10.000000] (REPLY)
r 0.306776600 _5_ MAC  --- 0 ACK 38 [0 5 0 0] 
s 0.306946600 _5_ MAC  --- 0 RTS 44 [52e 0 5 0] 
r 0.307299300 _0_ MAC  --- 0 RTS 44 [52e 0 5 0] 
s 0.307309300 _0_ MAC  --- 0 CTS 38 [3f4 5 0 0] 
r 0.307614000 _5_ MAC  --- 0 CTS 38 [3f4 5 0 0] 
s 0.307624000 _5_ MAC  --- 0 ARP 86 [13a 0 5 806] ------- [REPLY 5/5 0/0]
r 0.308312700 _0_ MAC  --- 0 ARP 28 [13a 0 5 806] ------- [REPLY 5/5 0/0]
s 0.308322700 _0_ MAC  --- 0 ACK 38 [0 5 0 0] 
r 0.308627400 _5_ MAC  --- 0 ACK 38 [0 5 0 0] 
s 0.309096700 _0_ MAC  --- 0 RTS 44 [5ae 5 0 0] 
r 0.309449400 _5_ MAC  --- 0 RTS 44 [5ae 5 0 0] 
s 0.309459400 _5_ MAC  --- 0 CTS 38 [474 0 0 0] 
r 0.309764100 _0_ MAC  --- 0 CTS 38 [474 0 0 0] 
s 0.309774100 _0_ MAC  --- 0 AODV 102 [13a 5 0 800] ------- [0:255 5:255 30 5] [0x4 1 [0 6] 10.000000] (REPLY)
r 0.310590800 _5_ MAC  --- 0 AODV 44 [13a 5 0 800] ------- [0:255 5:255 30 5] [0x4 1 [0 6] 10.000000] (REPLY)
s 0.310600800 _5_ MAC  --- 0 ACK 38 [0 0 0 0] 
r 0.310615800 _5_ RTR  --- 0 AODV 44 [13a 5 0 800] ------- [0:255 5:255 30 5] [0x4 1 [0 6] 10.000000] (REPLY)
r 0.310905500 _0_ MAC  --- 0 ACK 38 [0 0 0 0] 
s 0.311135500 _0_ MAC  --- 0 ARP 86 [0 ffffffff 0 806] ------- [REQUEST 0/0 0/5]
r 0.311824200 _5_ MAC  --- 0 ARP 28 [0 ffffffff 0 806] ------- [REQUEST 0/0 0/5]
s 0.312299200 _5_ MAC  --- 0 RTS 44 [52e 0 5 0] 
r 0.312651900 _0_ MAC  --- 0 RTS 44 [52e 0 5 0] 
s 0.312661900 _0_ MAC  --- 0 CTS 38 [3f4 5 0 0] 
r 0.312966600 _5_ MAC  --- 0 CTS 38 [3f4 5 0 0] 
s 0.312976600 _5_ MAC  --- 0 ARP 86 [13a 0 5 806] ------- [REPLY 5/5 0/0]
r 0.313665300 _0_ MAC  --- 0 ARP 28 [13a 0 5 806] ------- [REPLY 5/5 0/0]
s 0.313675300 _0_ MAC  --- 0 ACK 38 [0 5 0 0] 
r 0.313980000 _5_ MAC  --- 0 ACK 38 [0 5 0 0] 
s 0.314209300 _0_ MAC  --- 0 RTS 44 [52e 5 0 0] 
r 0.314562000 _5_ MAC  --- 0 RTS 44 [52e 5 0 0] 
s 0.314572000 _5_ MAC  --- 0 CTS 38 [3f4 0 0 0] 
r 0.314876700 _0_ MAC  --- 0 CTS 38 [3f4 0 0 0] 
s 0.314886700 _0_ MAC  --- 0 ARP 86 [13a 5 0 806] ------- [REPLY 0/0 5/5]
r 0.315000000 _0_ RTR  --- 2 cbr 1000 [0 0 0 0] ------- [0:1 5:0 32 0] [1] 0 0
r 0.315000000 _5_ RTR  --- 3 cbr 1000 [0 0 0 0] ------- [5:1 0:0 32 0] [1] 0 0
s 0.315000000 _0_ RTR  --- 2 cbr 1020 [0 0 0 0] ------- [0:1 5:0 30 5] [1] 0 0
s 0.315000000 _5_ RTR  --- 3 cbr 1020 [0 0 0 0] ------- [5:1 0:0 30 0] [1] 0 0
r 0.315575400 _5_ MAC  --- 0 ARP 28 [13a 5 0 806] ------- [REPLY 0/0 5/5]
s 0.315585400 _5_ MAC  --- 0 ACK 38 [0 0 0 0] 
r 0.315890100 _0_ MAC  --- 0 ACK 38 [0 0 0 0] 
s 0.315999400 _5_ MAC  --- 0 RTS 44 [242e 0 5 0] 
r 0.316352100 _0_ MAC  --- 0 RTS 44 [242e 0 5 0] 
s 0.316362100 _0_ MAC  --- 0 CTS 38 [22f4 5 0 0] 
r 0.316666800 _5_ MAC  --- 0 CTS 38 [22f4 5 0 0] 
s 0.316676800 _5_ MAC  --- 3 cbr 1078 [13a 0 5 800] ------- [5:1 0:0 30 0] [1] 0 0
r 0.325301500 _0_ MAC  --- 3 cbr 1020 [13a 0 5 800] ------- [5:1 0:0 30 0] [1] 1 0
s 0.325311500 _0_ MAC  --- 0 ACK 38 [0 5 0 0] 
r 0.325616200 _5_ MAC  --- 0 ACK 38 [0 5 0 0] 
s 0.326185500 _0_ MAC  --- 0 RTS 44 [52e 5 0 0] 
r 0.326538200 _5_ MAC  --- 0 RTS 44 [52e 5 0 0] 
s 0.326548200 _5_ MAC  --- 0 CTS 38 [3f4 0 0 0] 
r 0.326852900 _0_ MAC  --- 0 CTS 38 [3f4 0 0 0] 
s 0.326862900 _0_ MAC  --- 0 ARP 86 [13a 5 0 806] ------- [REPLY 0/0 5/5]
r 0.327551600 _5_ MAC  --- 0 ARP 28 [13a 5 0 806] ------- [REPLY 0/0 5/5]
s 0.327561600 _5_ MAC  --- 0 ACK 38 [0 0 0 0] 
r 0.327866300 _0_ MAC  --- 0 ACK 38 [0 0 0 0] 
s 0.328456300 _0_ MAC  --- 0 RTS 44 [242e 5 0 0] 
r 0.328809000 _5_ MAC  --- 0 RTS 44 [242e 5 0 0] 
s 0.328819000 _5_ MAC  --- 0 CTS 38 [22f4 0 0 0] 
r 0.329123700 _0_ MAC  --- 0 CTS 38 [22f4 0 0 0] 
s 0.329133700 _0_ MAC  --- 2 cbr 1078 [13a 5 0 800] ------- [0:1 5:0 30 5] [1] 0 0
r 0.330000000 _0_ RTR  --- 4 cbr 1000 [0 0 0 0] ------- [0:1 5:0 32 0] [2] 0 0
r 0.330000000 _5_ RTR  --- 5 cbr 1000 [0 0 0 0] ------- [5:1 0:0 32 0] [2] 0 0
s 0.330000000 _0_ RTR  --- 4 cbr 1020 [0 0 0 0] ------- [0:1 5:0 30 5] [2] 0 0
s 0.330000000 _5_ RTR  --- 5 cbr 1020 [0 0 0 0] ------- [5:1 0:0 30 0] [2] 0 0
r 0.337758400 _5_ MAC  --- 2 cbr 1020 [13a 5 0 800] ------- [0:1 5:0 30 5] [1] 1 0
s 0.337768400 _5_ MAC  --- 0 ACK 38 [0 0 0 0] 
r 0.338073100 _0_ MAC  --- 0 ACK 38 [0 0 0 0] 
s 0.338562400 _5_ MAC  --- 0 RTS 44 [242e 0 5 0] 
r 0.338915100 _0_ MAC  --- 0 RTS 44 [242e 0 5 0] 
s 0.338925100 _0_ MAC  --- 0 CTS 38 [22f4 5 0 0] 
r 0.339229800 _5_ MAC  --- 0 CTS 38 [22f4 5 0 0] 
s 0.339239800 _5_ MAC  --- 5 cbr 1078 [13a 0 5 800] ------- [5:1 0:0 30 0] [2] 0 0
r 0.345000000 _0_ RTR  --- 6 cbr 1000 [0 0 0 0] ------- [0:1 5:0 32 0] [3] 0 0
r 0.345000000 _5_ RTR  --- 7 cbr 1000 [0 0 0 0] ------- [5:1 0:0 32 0] [3] 0 0
s 0.345000000 _0_ RTR  --- 6 cbr 1020 [0 0 0 0] ------- [0:1 5:0 30 5] [3] 0 0
s 0.345000000 _5_ RTR  --- 7 cbr 1020 [0 0 0 0] ------- [5:1 0:0 30 0] [3] 0 0
r 0.347864500 _0_ MAC  --- 5 cbr 1020 [13a 0 5 800] ------- [5:1 0:0 30 0] [2] 1 0
s 0.347874500 _0_ MAC  --- 0 ACK 38 [0 5 0 0] 
r 0.348179200 _5_ MAC  --- 0 ACK 38 [0 5 0 0] 
s 0.348308500 _0_ MAC  --- 0 RTS 44 [242e 5 0 0] 
r 0.348661200 _5_ MAC  --- 0 RTS 44 [242e 5 0 0] 
s 0.348671200 _5_ MAC  --- 0 CTS 38 [22f4 0 0 0] 
r 0.348975900 _0_ MAC  --- 0 CTS 38 [22f4 0 0 0] 
s 0.348985900 _0_ MAC  --- 4 cbr 1078 [13a 5 0 800] ------- [0:1 5:0 30 5] [2] 0 0
r 0.357610600 _5_ MAC  --- 4 cbr 1020 [13a 5 0 800] ------- [0:1 5:0 30 5] [2] 1 0
s 0.357620600 _5_ MAC  --- 0 ACK 38 [0 0 0 0] 
r 0.357925300 _0_ MAC  --- 0 ACK 38 [0 0 0 0] 
s 0.357975300 _0_ MAC  --- 0 RTS 44 [242e 5 0 0] 
r 0.358328000 _5_ MAC  --- 0 RTS 44 [242e 5 0 0] 
s 0.358338000 _5_ MAC  --- 0 CTS 38 [22f4 0 0 0] 
r 0.358642700 _0_ MAC  --- 0 CTS 38 [22f4 0 0 0] 
s 0.358652700 _0_ MAC  --- 6 cbr 1078 [13a 5 0 800] ------- [0:1 5:0 30 5] [3] 0 0
r 0.360000000 _0_ RTR  --- 8 cbr 1000 [0 0 0 0] ------- [0:1 5:0 32 0] [4] 0 0
r 0.360000000 _5_ RTR  --- 9 cbr 1000 [0 0 0 0] ------- [5:1 0:0 32 0] [4] 0 0
s 0.360000000 _0_ RTR  --- 8 cbr 1020 [0 0 0 0] ------- [0:1 5:0 30 5] [4] 0 0
s 0.360000000 _5_ RTR  --- 9 cbr 1020 [0 0 0 0] ------- [5:1 0:0 30 0] [4] 0 0
r 0.367277400 _5_ MAC  --- 6 cbr 1020 [13a 5 0 800] ------- [0:1 5:0 30 5] [3] 1 0
s 0.367287400 _5_ MAC  --- 0 ACK 38 [0 0 0 0] 
r 0.367592100 _0_ MAC  --- 0 ACK 38 [0 0 0 0] 
s 0.367782100 _0_ MAC  --- 0 RTS 44 [242e 5 0 0] 
r 0.368134800 _5_ MAC  --- 0 RTS 44 [242e 5 0 0] 
s 0.368144800 _5_ MAC  --- 0 CTS 38 [22f4 0 0 0] 
r 0.368449500 _0_ MAC  --- 0 CTS 38 [22f4 0 0 0] 
s 0.368459500 _0_ MAC  --- 8 cbr 1078 [13a 5 0 800] ------- [0:1 5:0 30 5] [4] 0 0
r 0.375000000 _0_ RTR  --- 10 cbr 1000 [0 0 0 0] ------- [0:1 5:0 32 0] [5] 0 0
r 0.375000000 _5_ RTR  --- 11 cbr 1000 [0 0 0 0] ------- [5:1 0:0 32 0] [5] 0 0
s 0.375000000 _0_ RTR  --- 10 cbr 1020 [0 0 0 0] ------- [0:1 5:0 30 5] [5] 0 0
s 0.375000000 _5_ RTR  --- 11 cbr 1020 [0 0 0 0] ------- [5:1 0:0 30 0] [5] 0 0
r 0.377084200 _5_ MAC  --- 8 cbr 1020 [13a 5 0 800] ------- [0:1 5:0 30 5] [4] 1 0
s 0.377094200 _5_ MAC  --- 0 ACK 38 [0 0 0 0] 
r 0.377398900 _0_ MAC  --- 0 ACK 38 [0 0 0 0] 
s 0.377468200 _5_ MAC  --- 0 RTS 44 [242e 0 5 0] 
r 0.377820900 _0_ MAC  --- 0 RTS 44 [242e 0 5 0] 
s 0.377830900 _0_ MAC  --- 0 CTS 38 [22f4 5 0 0] 
r 0.378135600 _5_ MAC  --- 0 CTS 38 [22f4 5 0 0] 
s 0.378145600 _5_ MAC  --- 7 cbr 1078 [13a 0 5 800] ------- [5:1 0:0 30 0] [3] 0 0
r 0.386770300 _0_ MAC  --- 7 cbr 1020 [13a 0 5 800] ------- [5:1 0:0 30 0] [3] 1 0
s 0.386780300 _0_ MAC  --- 0 ACK 38 [0 5 0 0] 
r 0.387085000 _5_ MAC  --- 0 ACK 38 [0 5 0 0] 
s 0.387375000 _5_ MAC  --- 0 RTS 44 [242e 0 5 0] 
r 0.387727700 _0_ MAC  --- 0 RTS 44 [242e 0 5 0] 
s 0.387737700 _0_ MAC  --- 0 CTS 38 [22f4 5 0 0] 
r 0.388042400 _5_ MAC  --- 0 CTS 38 [22f4 5 0 0] 
s 0.388052400 _5_ MAC  --- 9 cbr 1078 [13a 0 5 800] ------- [5:1 0:0 30 0] [4] 0 0
r 0.390000000 _0_ RTR  --- 12 cbr 1000 [0 0 0 0] ------- [0:1 5:0 32 0] [6] 0 0
r 0.390000000 _5_ RTR  --- 13 cbr 1000 [0 0 0 0] ------- [5:1 0:0 32 0] [6] 0 0
s 0.390000000 _0_ RTR  --- 12 cbr 1020 [0 0 0 0] ------- [0:1 5:0 30 5] [6] 0 0
s 0.390000000 _5_ RTR  --- 13 cbr 1020 [0 0 0 0] ------- [5:1 0:0 30 0] [6] 0 0
r 0.396677100 _0_ MAC  --- 9 cbr 1020 [13a 0 5 800] ------- [5:1 0:0 30 0] [4] 1 0
s 0.396687100 _0_ MAC  --- 0 ACK 38 [0 5 0 0] 
r 0.396991800 _5_ MAC  --- 0 ACK 38 [0 5 0 0] 
s 0.397181800 _5_ MAC  --- 0 RTS 44 [242e 0 5 0] 
r 0.397534500 _0_ MAC  --- 0 RTS 44 [242e 0 5 0] 
s 0.397544500 _0_ MAC  --- 0 CTS 38 [22f4 5 0 0] 
r 0.397849200 _5_ MAC  --- 0 CTS 38 [22f4 5 0 0] 
s 0.397859200 _5_ MAC  --- 11 cbr 1078 [13a 0 5 800] ------- [5:1 0:0 30 0] [5] 0 0
r 0.405000000 _0_ RTR  --- 14 cbr 1000 [0 0 0 0] ------- [0:1 5:0 32 0] [7] 0 0
r 0.405000000 _5_ RTR  --- 15 cbr 1000 [0 0 0 0] ------- [5:1 0:0 32 0] [7] 0 0
s 0.405000000 _0_ RTR  --- 14 cbr 1020 [0 0 0 0] ------- [0:1 5:0 30 5] [7] 0 0
s 0.405000000 _5_ RTR  --- 15 cbr 1020 [0 0 0 0] ------- [5:1 0:0 30 0] [7] 0 0
r 0.406483900 _0_ MAC  --- 11 cbr 1020 [13a 0 5 800] ------- [5:1 0:0 30 0] [5] 1 0
s 0.406493900 _0_ MAC  --- 0 ACK 38 [0 5 0 0] 
r 0.406798600 _5_ MAC  --- 0 ACK 38 [0 5 0 0] 
s 0.406987900 _0_ MAC  --- 0 RTS 44 [242e 5 0 0] 
r 0.407340600 _5_ MAC  --- 0 RTS 44 [242e 5 0 0] 
s 0.407350600 _5_ MAC  --- 0 CTS 38 [22f4 0 0 0] 
r 0.407655300 _0_ MAC  --- 0 CTS 38 [22f4 0 0 0] 
s 0.407665300 _0_ MAC  --- 10 cbr 1078 [13a 5 0 800] ------- [0:1 5:0 30 5] [5] 0 0
r 0.416290000 _5_ MAC  --- 10 cbr 1020 [13a 5 0 800] ------- [0:1 5:0 30 5] [5] 1 0
s 0.416300000 _5_ MAC  --- 0 ACK 38 [0 0 0 0] 
r 0.416604700 _0_ MAC  --- 0 ACK 38 [0 0 0 0] 
s 0.417054000 _5_ MAC  --- 0 RTS 44 [242e 0 5 0] 
r 0.417406700 _0_ MAC  --- 0 RTS 44 [242e 0 5 0] 
s 0.417416700 _0_ MAC  --- 0 CTS 38 [22f4 5 0 0] 
r 0.417721400 _5_ MAC  --- 0 CTS 38 [22f4 5 0 0] 
s 0.417731400 _5_ MAC  --- 13 cbr 1078 [13a 0 5 800] ------- [5:1 0:0 30 0] [6] 0 0
r 0.420000000 _0_ RTR  --- 16 cbr 1000 [0 0 0 0] ------- [0:1 5:0 32 0] [8] 0 0
r 0.420000000 _5_ RTR  --- 17 cbr 1000 [0 0 0 0] ------- [5:1 0:0 32 0] [8] 0 0
s 0.420000000 _0_ RTR  --- 16 cbr 1020 [0 0 0 0] ------- [0:1 5:0 30 5] [8] 0 0
s 0.420000000 _5_ RTR  --- 17 cbr 1020 [0 0 0 0] ------- [5:1 0:0 30 0] [8] 0 0
r 0.426356100 _0_ MAC  --- 13 cbr 1020 [13a 0 5 800] ------- [5:1 0:0 30 0] [6] 1 0
s 0.426366100 _0_ MAC  --- 0 ACK 38 [0 5 0 0] 
r 0.426670800 _5_ MAC  --- 0 ACK 38 [0 5 0 0] 
s 0.426740800 _5_ MAC  --- 0 RTS 44 [242e 0 5 0] 
r 0.427093500 _0_ MAC  --- 0 RTS 44 [242e 0 5 0] 
s 0.427103500 _0_ MAC  --- 0 CTS 38 [22f4 5 0 0] 
r 0.427408200 _5_ MAC  --- 0 CTS 38 [22f4 5 0 0] 
s 0.427418200 _5_ MAC  --- 15 cbr 1078 [13a 0 5 800] ------- [5:1 0:0 30 0] [7] 0 0
r 0.435000000 _0_ RTR  --- 18 cbr 1000 [0 0 0 0] ------- [0:1 5:0 32 0] [9] 0 0
r 0.435000000 _5_ RTR  --- 19 cbr 1000 [0 0 0 0] ------- [5:1 0:0 32 0] [9] 0 0
s 0.435000000 _0_ RTR  --- 18 cbr 1020 [0 0 0 0] ------- [0:1 5:0 30 5] [9] 0 0
s 0.435000000 _5_ RTR  --- 19 cbr 1020 [0 0 0 0] ------- [5:1 0:0 30 0] [9] 0 0
r 0.436042900 _0_ MAC  --- 15 cbr 1020 [13a 0 5 800] ------- [5:1 0:0 30 0] [7] 1 0
s 0.436052900 _0_ MAC  --- 0 ACK 38 [0 5 0 0] 
r 0.436357600 _5_ MAC  --- 0 ACK 38 [0 5 0 0] 
s 0.436447600 _5_ MAC  --- 0 RTS 44 [242e 0 5 0] 
r 0.436800300 _0_ MAC  --- 0 RTS 44 [242e 0 5 0] 
s 0.436810300 _0_ MAC  --- 0 CTS 38 [22f4 5 0 0] 
r 0.437115000 _5_ MAC  --- 0 CTS 38 [22f4 5 0 0] 
s 0.437125000 _5_ MAC  --- 17 cbr 1078 [13a 0 5 800] ------- [5:1 0:0 30 0] [8] 0 0
r 0.445749700 _0_ MAC  --- 17 cbr 1020 [13a 0 5 800] ------- [5:1 0:0 30 0] [8] 1 0
s 0.445759700 _0_ MAC  --- 0 ACK 38 [0 5 0 0] 
r 0.446064400 _5_ MAC  --- 0 ACK 38 [0 5 0 0] 
s 0.446213700 _0_ MAC  --- 0 RTS 44 [242e 5 0 0] 
r 0.446566400 _5_ MAC  --- 0 RTS 44 [242e 5 0 0] 
s 0.446576400 _5_ MAC  --- 0 CTS 38 [22f4 0 0 0] 
r 0.446881100 _0_ MAC  --- 0 CTS 38 [22f4 0 0 0] 
s 0.446891100 _0_ MAC  --- 12 cbr 1078 [13a 5 0 800] ------- [0:1 5:0 30 5] [6] 0 0
r 0.450000000 _0_ RTR  --- 20 cbr 1000 [0 0 0 0] ------- [0:1 5:0 32 0] [10] 0 0
r 0.450000000 _5_ RTR  --- 21 cbr 1000 [0 0 0 0] ------- [5:1 0:0 32 0] [10] 0 0
s 0.450000000 _0_ RTR  --- 20 cbr 1020 [0 0 0 0] ------- [0:1 5:0 30 5] [10] 0 0
s 0.450000000 _5_ RTR  --- 21 cbr 1020 [0 0 0 0] ------- [5:1 0:0 30 0] [10] 0 0
r 0.455515800 _5_ MAC  --- 12 cbr 1020 [13a 5 0 800] ------- [0:1 5:0 30 5] [6] 1 0
s 0.455525800 _5_ MAC  --- 0 ACK 38 [0 0 0 0] 
r 0.455830500 _0_ MAC  --- 0 ACK 38 [0 0 0 0] 
s 0.456320500 _0_ MAC  --- 0 RTS 44 [242e 5 0 0] 
r 0.456673200 _5_ MAC  --- 0 RTS 44 [242e 5 0 0] 
s 0.456683200 _5_ MAC  --- 0 CTS 38 [22f4 0 0 0] 
r 0.456987900 _0_ MAC  --- 0 CTS 38 [22f4 0 0 0] 
s 0.456997900 _0_ MAC  --- 14 cbr 1078 [13a 5 0 800] ------- [0:1 5:0 30 5] [7] 0 0
r 0.465000000 _0_ RTR  --- 22 cbr 1000 [0 0 0 0] ------- [0:1 5:0 32 0] [11] 0 0
r 0.465000000 _5_ RTR  --- 23 cbr 1000 [0 0 0 0] ------- [5:1 0:0 32 0] [11] 0 0
s 0.465000000 _0_ RTR  --- 22 cbr 1020 [0 0 0 0] ------- [0:1 5:0 30 5] [11] 0 0
s 0.465000000 _5_ RTR  --- 23 cbr 1020 [0 0 0 0] ------- [5:1 0:0 30 0] [11] 0 0
r 0.465622600 _5_ MAC  --- 14 cbr 1020 [13a 5 0 800] ------- [0:1 5:0 30 5] [7] 1 0
s 0.465632600 _5_ MAC  --- 0 ACK 38 [0 0 0 0] 
r 0.465937300 _0_ MAC  --- 0 ACK 38 [0 0 0 0] 
s 0.466006600 _5_ MAC  --- 0 RTS 44 [242e 0 5 0] 
r 0.466359300 _0_ MAC  --- 0 RTS 44 [242e 0 5 0] 
s 0.466369300 _0_ MAC  --- 0 CTS 38 [22f4 5 0 0] 
r 0.466674000 _5_ MAC  --- 0 CTS 38 [22f4 5 0 0] 
s 0.466684000 _5_ MAC  --- 19 cbr 1078 [13a 0 5 800] ------- [5:1 0:0 30 0] [9] 0 0
r 0.475308700 _0_ MAC  --- 19 cbr 1020 [13a 0 5 800] ------- [5:1 0:0 30 0] [9] 1 0
s 0.475318700 _0_ MAC  --- 0 ACK 38 [0 5 0 0] 
r 0.475623400 _5_ MAC  --- 0 ACK 38 [0 5 0 0] 
s 0.475792700 _0_ MAC  --- 0 RTS 44 [242e 5 0 0] 
r 0.476145400 _5_ MAC  --- 0 RTS 44 [242e 5 0 0] 
s 0.476155400 _5_ MAC  --- 0 CTS 38 [22f4 0 0 0] 
r 0.476460100 _0_ MAC  --- 0 CTS 38 [22f4 0 0 0] 
s 0.476470100 _0_ MAC  --- 16 cbr 1078 [13a 5 0 800] ------- [0:1 5:0 30 5] [8] 0 0
r 0.480000000 _0_ RTR  --- 24 cbr 1000 [0 0 0 0] ------- [0:1 5:0 32 0] [12] 0 0
r 0.480000000 _5_ RTR  --- 25 cbr 1000 [0 0 0 0] ------- [5:1 0:0 32 0] [12] 0 0
s 0.480000000 _0_ RTR  --- 24 cbr 1020 [0 0 0 0] ------- [0:1 5:0 30 5] [12] 0 0
s 0.480000000 _5_ RTR  --- 25 cbr 1020 [0 0 0 0] ------- [5:1 0:0 30 0] [12] 0 0
r 0.485094800 _5_ MAC  --- 16 cbr 1020 [13a 5 0 800] ------- [0:1 5:0 30 5] [8] 1 0
s 0.485104800 _5_ MAC  --- 0 ACK 38 [0 0 0 0] 
r 0.485409500 _0_ MAC  --- 0 ACK 38 [0 0 0 0] 
s 0.485658800 _5_ MAC  --- 0 RTS 44 [242e 0 5 0] 
r 0.486011500 _0_ MAC  --- 0 RTS 44 [242e 0 5 0] 
s 0.486021500 _0_ MAC  --- 0 CTS 38 [22f4 5 0 0] 
r 0.486326200 _5_ MAC  --- 0 CTS 38 [22f4 5 0 0] 
s 0.486336200 _5_ MAC  --- 21 cbr 1078 [13a 0 5 800] ------- [5:1 0:0 30 0] [10] 0 0
r 0.494960900 _0_ MAC  --- 21 cbr 1020 [13a 0 5 800] ------- [5:1 0:0 30 0] [10] 1 0
s 0.494970900 _0_ MAC  --- 0 ACK 38 [0 5 0 0] 
r 0.495000000 _0_ RTR  --- 26 cbr 1000 [0 0 0 0] ------- [0:1 5:0 32 0] [13] 0 0
r 0.495000000 _5_ RTR  --- 27 cbr 1000 [0 0 0 0] ------- [5:1 0:0 32 0] [13] 0 0
s 0.495000000 _0_ RTR  --- 26 cbr 1020 [0 0 0 0] ------- [0:1 5:0 30 5] [13] 0 0
s 0.495000000 _5_ RTR  --- 27 cbr 1020 [0 0 0 0] ------- [5:1 0:0 30 0] [13] 0 0
r 0.495275600 _5_ MAC  --- 0 ACK 38 [0 5 0 0] 
s 0.495524900 _0_ MAC  --- 0 RTS 44 [242e 5 0 0] 
r 0.495877600 _5_ MAC  --- 0 RTS 44 [242e 5 0 0] 
s 0.495887600 _5_ MAC  --- 0 CTS 38 [22f4 0 0 0] 
r 0.496192300 _0_ MAC  --- 0 CTS 38 [22f4 0 0 0] 
s 0.496202300 _0_ MAC  --- 18 cbr 1078 [13a 5 0 800] ------- [0:1 5:0 30 5] [9] 0 0
r 0.504827000 _5_ MAC  --- 18 cbr 1020 [13a 5 0 800] ------- [0:1 5:0 30 5] [9] 1 0
s 0.504837000 _5_ MAC  --- 0 ACK 38 [0 0 0 0] 
r 0.505141700 _0_ MAC  --- 0 ACK 38 [0 0 0 0] 
s 0.505291700 _0_ MAC  --- 0 RTS 44 [242e 5 0 0] 
r 0.505644400 _5_ MAC  --- 0 RTS 44 [242e 5 0 0] 
s 0.505654400 _5_ MAC  --- 0 CTS 38 [22f4 0 0 0] 
r 0.505959100 _0_ MAC  --- 0 CTS 38 [22f4 0 0 0] 
s 0.505969100 _0_ MAC  --- 20 cbr 1078 [13a 5 0 800] ------- [0:1 5:0 30 5] [10] 0 0
r 0.510000000 _0_ RTR  --- 28 cbr 1000 [0 0 0 0] ------- [0:1 5:0 32 0] [14] 0 0
r 0.510000000 _5_ RTR  --- 29 cbr 1000 [0 0 0 0] ------- [5:1 0:0 32 0] [14] 0 0
s 0.510000000 _0_ RTR  --- 28 cbr 1020 [0 0 0 0] ------- [0:1 5:0 30 5] [14] 0 0
s 0.510000000 _5_ RTR  --- 29 cbr 1020 [0 0 0 0] ------- [5:1 0:0 30 0] [14] 0 0
r 0.514593800 _5_ MAC  --- 20 cbr 1020 [13a 5 0 800] ------- [0:1 5:0 30 5] [10] 1 0
s 0.514603800 _5_ MAC  --- 0 ACK 38 [0 0 0 0] 
r 0.514908500 _0_ MAC  --- 0 ACK 38 [0 0 0 0] 
s 0.514997800 _5_ MAC  --- 0 RTS 44 [242e 0 5 0] 
r 0.515350500 _0_ MAC  --- 0 RTS 44 [242e 0 5 0] 
s 0.515360500 _0_ MAC  --- 0 CTS 38 [22f4 5 0 0] 
r 0.515665200 _5_ MAC  --- 0 CTS 38 [22f4 5 0 0] 
s 0.515675200 _5_ MAC  --- 23 cbr 1078 [13a 0 5 800] ------- [5:1 0:0 30 0] [11] 0 0
r 0.524299900 _0_ MAC  --- 23 cbr 1020 [13a 0 5 800] ------- [5:1 0:0 30 0] [11] 1 0
s 0.524309900 _0_ MAC  --- 0 ACK 38 [0 5 0 0] 
r 0.524614600 _5_ MAC  --- 0 ACK 38 [0 5 0 0] 
s 0.524724600 _5_ MAC  --- 0 RTS 44 [242e 0 5 0] 
r 0.525000000 _0_ RTR  --- 30 cbr 1000 [0 0 0 0] ------- [0:1 5:0 32 0] [15] 0 0
r 0.525000000 _5_ RTR  --- 31 cbr 1000 [0 0 0 0] ------- [5:1 0:0 32 0] [15] 0 0
s 0.525000000 _0_ RTR  --- 30 cbr 1020 [0 0 0 0] ------- [0:1 5:0 30 5] [15] 0 0
s 0.525000000 _5_ RTR  --- 31 cbr 1020 [0 0 0 0] ------- [5:1 0:0 30 0] [15] 0 0
r 0.525077300 _0_ MAC  --- 0 RTS 44 [242e 0 5 0] 
s 0.525087300 _0_ MAC  --- 0 CTS 38 [22f4 5 0 0] 
r 0.525392000 _5_ MAC  --- 0 CTS 38 [22f4 5 0 0] 
s 0.525402000 _5_ MAC  --- 25 cbr 1078 [13a 0 5 800] ------- [5:1 0:0 30 0] [12] 0 0
r 0.534026700 _0_ MAC  --- 25 cbr 1020 [13a 0 5 800] ------- [5:1 0:0 30 0] [12] 1 0
s 0.534036700 _0_ MAC  --- 0 ACK 38 [0 5 0 0] 
r 0.534341400 _5_ MAC  --- 0 ACK 38 [0 5 0 0] 
s 0.534491400 _5_ MAC  --- 0 RTS 44 [242e 0 5 0] 
r 0.534844100 _0_ MAC  --- 0 RTS 44 [242e 0 5 0] 
s 0.534854100 _0_ MAC  --- 0 CTS 38 [22f4 5 0 0] 
r 0.535158800 _5_ MAC  --- 0 CTS 38 [22f4 5 0 0] 
s 0.535168800 _5_ MAC  --- 27 cbr 1078 [13a 0 5 800] ------- [5:1 0:0 30 0] [13] 0 0
r 0.540000000 _0_ RTR  --- 32 cbr 1000 [0 0 0 0] ------- [0:1 5:0 32 0] [16] 0 0
r 0.540000000 _5_ RTR  --- 33 cbr 1000 [0 0 0 0] ------- [5:1 0:0 32 0] [16] 0 0
s 0.540000000 _0_ RTR  --- 32 cbr 1020 [0 0 0 0] ------- [0:1 5:0 30 5] [16] 0 0
s 0.540000000 _5_ RTR  --- 33 cbr 1020 [0 0 0 0] ------- [5:1 0:0 30 0] [16] 0 0
r 0.543793500 _0_ MAC  --- 27 cbr 1020 [13a 0 5 800] ------- [5:1 0:0 30 0] [13] 1 0
s 0.543803500 _0_ MAC  --- 0 ACK 38 [0 5 0 0] 
r 0.544108200 _5_ MAC  --- 0 ACK 38 [0 5 0 0] 
s 0.544397500 _0_ MAC  --- 0 RTS 44 [242e 5 0 0] 
s 0.544398200 _5_ MAC  --- 0 RTS 44 [242e 0 5 0] 
s 0.545584900 _0_ MAC  --- 0 RTS 44 [242e 5 0 0] 
r 0.545937600 _5_ MAC  --- 0 RTS 44 [242e 5 0 0] 
s 0.545947600 _5_ MAC  --- 0 CTS 38 [22f4 0 0 0] 
r 0.546252300 _0_ MAC  --- 0 CTS 38 [22f4 0 0 0] 
s 0.546262300 _0_ MAC  --- 22 cbr 1078 [13a 5 0 800] ------- [0:1 5:0 30 5] [11] 0 0
r 0.554887000 _5_ MAC  --- 22 cbr 1020 [13a 5 0 800] ------- [0:1 5:0 30 5] [11] 1 0
s 0.554897000 _5_ MAC  --- 0 ACK 38 [0 0 0 0] 
r 0.555000000 _0_ RTR  --- 34 cbr 1000 [0 0 0 0] ------- [0:1 5:0 32 0] [17] 0 0
r 0.555000000 _5_ RTR  --- 35 cbr 1000 [0 0 0 0] ------- [5:1 0:0 32 0] [17] 0 0
s 0.555000000 _0_ RTR  --- 34 cbr 1020 [0 0 0 0] ------- [0:1 5:0 30 5] [17] 0 0
s 0.555000000 _5_ RTR  --- 35 cbr 1020 [0 0 0 0] ------- [5:1 0:0 30 0] [17] 0 0
r 0.555201700 _0_ MAC  --- 0 ACK 38 [0 0 0 0] 
s 0.555731700 _0_ MAC  --- 0 RTS 44 [242e 5 0 0] 
r 0.556084400 _5_ MAC  --- 0 RTS 44 [242e 5 0 0] 
s 0.556094400 _5_ MAC  --- 0 CTS 38 [22f4 0 0 0] 
r 0.556399100 _0_ MAC  --- 0 CTS 38 [22f4 0 0 0] 
s 0.556409100 _0_ MAC  --- 24 cbr 1078 [13a 5 0 800] ------- [0:1 5:0 30 5] [12] 0 0
r 0.565033800 _5_ MAC  --- 24 cbr 1020 [13a 5 0 800] ------- [0:1 5:0 30 5] [12] 1 0
s 0.565043800 _5_ MAC  --- 0 ACK 38 [0 0 0 0] 
r 0.565348500 _0_ MAC  --- 0 ACK 38 [0 0 0 0] 
s 0.565538500 _0_ MAC  --- 0 RTS 44 [242e 5 0 0] 
r 0.565891200 _5_ MAC  --- 0 RTS 44 [242e 5 0 0] 
s 0.565901200 _5_ MAC  --- 0 CTS 38 [22f4 0 0 0] 
r 0.566205900 _0_ MAC  --- 0 CTS 38 [22f4 0 0 0] 
s 0.566215900 _0_ MAC  --- 26 cbr 1078 [13a 5 0 800] ------- [0:1 5:0 30 5] [13] 0 0
r 0.570000000 _0_ RTR  --- 36 cbr 1000 [0 0 0 0] ------- [0:1 5:0 32 0] [18] 0 0
r 0.570000000 _5_ RTR  --- 37 cbr 1000 [0 0 0 0] ------- [5:1 0:0 32 0] [18] 0 0
s 0.570000000 _0_ RTR  --- 36 cbr 1020 [0 0 0 0] ------- [0:1 5:0 30 5] [18] 0 0
s 0.570000000 _5_ RTR  --- 37 cbr 1020 [0 0 0 0] ------- [5:1 0:0 30 0] [18] 0 0
r 0.574840600 _5_ MAC  --- 26 cbr 1020 [13a 5 0 800] ------- [0:1 5:0 30 5] [13] 1 0
s 0.574850600 _5_ MAC  --- 0 ACK 38 [0 0 0 0] 
r 0.575155300 _0_ MAC  --- 0 ACK 38 [0 0 0 0] 
s 0.575344600 _5_ MAC  --- 0 RTS 44 [242e 0 5 0] 
r 0.575697300 _0_ MAC  --- 0 RTS 44 [242e 0 5 0] 
s 0.575707300 _0_ MAC  --- 0 CTS 38 [22f4 5 0 0] 
r 0.576012000 _5_ MAC  --- 0 CTS 38 [22f4 5 0 0] 
s 0.576022000 _5_ MAC  --- 29 cbr 1078 [13a 0 5 800] ------- [5:1 0:0 30 0] [14] 0 0
r 0.584646700 _0_ MAC  --- 29 cbr 1020 [13a 0 5 800] ------- [5:1 0:0 30 0] [14] 1 0
s 0.584656700 _0_ MAC  --- 0 ACK 38 [0 5 0 0] 
r 0.584961400 _5_ MAC  --- 0 ACK 38 [0 5 0 0] 
r 0.585000000 _0_ RTR  --- 38 cbr 1000 [0 0 0 0] ------- [0:1 5:0 32 0] [19] 0 0
r 0.585000000 _5_ RTR  --- 39 cbr 1000 [0 0 0 0] ------- [5:1 0:0 32 0] [19] 0 0
s 0.585000000 _0_ RTR  --- 38 cbr 1020 [0 0 0 0] ------- [0:1 5:0 30 5] [19] 0 0
s 0.585000000 _5_ RTR  --- 39 cbr 1020 [0 0 0 0] ------- [5:1 0:0 30 0] [19] 0 0
s 0.585371400 _5_ MAC  --- 0 RTS 44 [242e 0 5 0] 
r 0.585724100 _0_ MAC  --- 0 RTS 44 [242e 0 5 0] 
s 0.585734100 _0_ MAC  --- 0 CTS 38 [22f4 5 0 0] 
r 0.586038800 _5_ MAC  --- 0 CTS 38 [22f4 5 0 0] 
s 0.586048800 _5_ MAC  --- 31 cbr 1078 [13a 0 5 800] ------- [5:1 0:0 30 0] [15] 0 0
r 0.594673500 _0_ MAC  --- 31 cbr 1020 [13a 0 5 800] ------- [5:1 0:0 30 0] [15] 1 0
s 0.594683500 _0_ MAC  --- 0 ACK 38 [0 5 0 0] 
r 0.594988200 _5_ MAC  --- 0 ACK 38 [0 5 0 0] 
s 0.595097500 _0_ MAC  --- 0 RTS 44 [242e 5 0 0] 
r 0.595450200 _5_ MAC  --- 0 RTS 44 [242e 5 0 0] 
s 0.595460200 _5_ MAC  --- 0 CTS 38 [22f4 0 0 0] 
r 0.595764900 _0_ MAC  --- 0 CTS 38 [22f4 0 0 0] 
s 0.595774900 _0_ MAC  --- 28 cbr 1078 [13a 5 0 800] ------- [0:1 5:0 30 5] [14] 0 0
r 0.600000000 _0_ RTR  --- 40 cbr 1000 [0 0 0 0] ------- [0:1 5:0 32 0] [20] 0 0
r 0.600000000 _5_ RTR  --- 41 cbr 1000 [0 0 0 0] ------- [5:1 0:0 32 0] [20] 0 0
s 0.600000000 _0_ RTR  --- 40 cbr 1020 [0 0 0 0] ------- [0:1 5:0 30 5] [20] 0 0
s 0.600000000 _5_ RTR  --- 41 cbr 1020 [0 0 0 0] ------- [5:1 0:0 30 0] [20] 0 0
r 0.604399600 _5_ MAC  --- 28 cbr 1020 [13a 5 0 800] ------- [0:1 5:0 30 5] [14] 1 0
s 0.604409600 _5_ MAC  --- 0 ACK 38 [0 0 0 0] 
r 0.604714300 _0_ MAC  --- 0 ACK 38 [0 0 0 0] 
s 0.604804300 _0_ MAC  --- 0 RTS 44 [242e 5 0 0] 
r 0.605157000 _5_ MAC  --- 0 RTS 44 [242e 5 0 0] 
s 0.605167000 _5_ MAC  --- 0 CTS 38 [22f4 0 0 0] 
r 0.605471700 _0_ MAC  --- 0 CTS 38 [22f4 0 0 0] 
s 0.605481700 _0_ MAC  --- 30 cbr 1078 [13a 5 0 800] ------- [0:1 5:0 30 5] [15] 0 0
r 0.614106400 _5_ MAC  --- 30 cbr 1020 [13a 5 0 800] ------- [0:1 5:0 30 5] [15] 1 0
s 0.614116400 _5_ MAC  --- 0 ACK 38 [0 0 0 0] 
r 0.614421100 _0_ MAC  --- 0 ACK 38 [0 0 0 0] 
s 0.614531100 _0_ MAC  --- 0 RTS 44 [242e 5 0 0] 
r 0.614883800 _5_ MAC  --- 0 RTS 44 [242e 5 0 0] 
s 0.614893800 _5_ MAC  --- 0 CTS 38 [22f4 0 0 0] 
r 0.615000000 _0_ RTR  --- 42 cbr 1000 [0 0 0 0] ------- [0:1 5:0 32 0] [21] 0 0
r 0.615000000 _5_ RTR  --- 43 cbr 1000 [0 0 0 0] ------- [5:1 0:0 32 0] [21] 0 0
s 0.615000000 _0_ RTR  --- 42 cbr 1020 [0 0 0 0] ------- [0:1 5:0 30 5] [21] 0 0
s 0.615000000 _5_ RTR  --- 43 cbr 1020 [0 0 0 0] ------- [5:1 0:0 30 0] [21] 0 0
r 0.615198500 _0_ MAC  --- 0 CTS 38 [22f4 0 0 0] 
s 0.615208500 _0_ MAC  --- 32 cbr 1078 [13a 5 0 800] ------- [0:1 5:0 30 5] [16] 0 0
r 0.623833200 _5_ MAC  --- 32 cbr 1020 [13a 5 0 800] ------- [0:1 5:0 30 5] [16] 1 0
s 0.623843200 _5_ MAC  --- 0 ACK 38 [0 0 0 0] 
r 0.624147900 _0_ MAC  --- 0 ACK 38 [0 0 0 0] 
s 0.624257200 _5_ MAC  --- 0 RTS 44 [242e 0 5 0] 
r 0.624609900 _0_ MAC  --- 0 RTS 44 [242e 0 5 0] 
s 0.624619900 _0_ MAC  --- 0 CTS 38 [22f4 5 0 0] 
r 0.624924600 _5_ MAC  --- 0 CTS 38 [22f4 5 0 0] 
s 0.624934600 _5_ MAC  --- 33 cbr 1078 [13a 0 5 800] ------- [5:1 0:0 30 0] [16] 0 0
r 0.630000000 _0_ RTR  --- 44 cbr 1000 [0 0 0 0] ------- [0:1 5:0 32 0] [22] 0 0
r 0.630000000 _5_ RTR  --- 45 cbr 1000 [0 0 0 0] ------- [5:1 0:0 32 0] [22] 0 0
s 0.630000000 _0_ RTR  --- 44 cbr 1020 [0 0 0 0] ------- [0:1 5:0 30 5] [22] 0 0
s 0.630000000 _5_ RTR  --- 45 cbr 1020 [0 0 0 0] ------- [5:1 0:0 30 0] [22] 0 0
r 0.633559300 _0_ MAC  --- 33 cbr 1020 [13a 0 5 800] ------- [5:1 0:0 30 0] [16] 1 0
s 0.633569300 _0_ MAC  --- 0 ACK 38 [0 5 0 0] 
r 0.633874000 _5_ MAC  --- 0 ACK 38 [0 5 0 0] 
s 0.634004000 _5_ MAC  --- 0 RTS 44 [242e 0 5 0] 
r 0.634356700 _0_ MAC  --- 0 RTS 44 [242e 0 5 0] 
s 0.634366700 _0_ MAC  --- 0 CTS 38 [22f4 5 0 0] 
r 0.634671400 _5_ MAC  --- 0 CTS 38 [22f4 5 0 0] 
s 0.634681400 _5_ MAC  --- 35 cbr 1078 [13a 0 5 800] ------- [5:1 0:0 30 0] [17] 0 0
r 0.643306100 _0_ MAC  --- 35 cbr 1020 [13a 0 5 800] ------- [5:1 0:0 30 0] [17] 1 0
s 0.643316100 _0_ MAC  --- 0 ACK 38 [0 5 0 0] 
r 0.643620800 _5_ MAC  --- 0 ACK 38 [0 5 0 0] 
s 0.643770100 _0_ MAC  --- 0 RTS 44 [242e 5 0 0] 
r 0.644122800 _5_ MAC  --- 0 RTS 44 [242e 5 0 0] 
s 0.644132800 _5_ MAC  --- 0 CTS 38 [22f4 0 0 0] 
r 0.644437500 _0_ MAC  --- 0 CTS 38 [22f4 0 0 0] 
s 0.644447500 _0_ MAC  --- 34 cbr 1078 [13a 5 0 800] ------- [0:1 5:0 30 5] [17] 0 0
r 0.645000000 _0_ RTR  --- 46 cbr 1000 [0 0 0 0] ------- [0:1 5:0 32 0] [23] 0 0
r 0.645000000 _5_ RTR  --- 47 cbr 1000 [0 0 0 0] ------- [5:1 0:0 32 0] [23] 0 0
s 0.645000000 _0_ RTR  --- 46 cbr 1020 [0 0 0 0] ------- [0:1 5:0 30 5] [23] 0 0
s 0.645000000 _5_ RTR  --- 47 cbr 1020 [0 0 0 0] ------- [5:1 0:0 30 0] [23] 0 0
r 0.653072200 _5_ MAC  --- 34 cbr 1020 [13a 5 0 800] ------- [0:1 5:0 30 5] [17] 1 0
s 0.653082200 _5_ MAC  --- 0 ACK 38 [0 0 0 0] 
r 0.653386900 _0_ MAC  --- 0 ACK 38 [0 0 0 0] 
s 0.653556900 _0_ MAC  --- 0 RTS 44 [242e 5 0 0] 
r 0.653909600 _5_ MAC  --- 0 RTS 44 [242e 5 0 0] 
s 0.653919600 _5_ MAC  --- 0 CTS 38 [22f4 0 0 0] 
r 0.654224300 _0_ MAC  --- 0 CTS 38 [22f4 0 0 0] 
s 0.654234300 _0_ MAC  --- 36 cbr 1078 [13a 5 0 800] ------- [0:1 5:0 30 5] [18] 0 0
r 0.660000000 _0_ RTR  --- 48 cbr 1000 [0 0 0 0] ------- [0:1 5:0 32 0] [24] 0 0
r 0.660000000 _5_ RTR  --- 49 cbr 1000 [0 0 0 0] ------- [5:1 0:0 32 0] [24] 0 0
s 0.660000000 _0_ RTR  --- 48 cbr 1020 [0 0 0 0] ------- [0:1 5:0 30 5] [24] 0 0
s 0.660000000 _5_ RTR  --- 49 cbr 1020 [0 0 0 0] ------- [5:1 0:0 30 0] [24] 0 0
r 0.662859000 _5_ MAC  --- 36 cbr 1020 [13a 5 0 800] ------- [0:1 5:0 30 5] [18] 1 0
s 0.662869000 _5_ MAC  --- 0 ACK 38 [0 0 0 0] 
r 0.663173700 _0_ MAC  --- 0 ACK 38 [0 0 0 0] 
s 0.663243000 _5_ MAC  --- 0 RTS 44 [242e 0 5 0] 
r 0.663595700 _0_ MAC  --- 0 RTS 44 [242e 0 5 0] 
s 0.663605700 _0_ MAC  --- 0 CTS 38 [22f4 5 0 0] 
r 0.663910400 _5_ MAC  --- 0 CTS 38 [22f4 5 0 0] 
s 0.663920400 _5_ MAC  --- 37 cbr 1078 [13a 0 5 800] ------- [5:1 0:0 30 0] [18] 0 0
r 0.672545100 _0_ MAC  --- 37 cbr 1020 [13a 0 5 800] ------- [5:1 0:0 30 0] [18] 1 0