M 0.00000 0 (0.00, 0.00, 0.00), (200.00, 200.00), 3000.00
M 0.00000 1 (0.00, 0.00, 0.00), (300.00, 300.00), 3000.00
r 0.300000000 _0_ RTR  --- 0 cbr 1000 [0 0 0 0] ------- [0:1 2:0 32 0] [0] 0 0
r 0.300000000 _1_ RTR  --- 1 cbr 1000 [0 0 0 0] ------- [1:0 0:0 32 0] [0] 0 0
s 0.300000000 _0_ RTR  --- 0 AODV 48 [0 0 0 0] ------- [0:255 -1:255 30 0] [0x2 1 1 [2 0] [0 4]] (REQUEST)
s 0.300000000 _1_ RTR  --- 0 AODV 48 [0 0 0 0] ------- [1:255 -1:255 30 0] [0x2 1 1 [0 0] [1 4]] (REQUEST)
s 0.300575000 _1_ MAC  --- 0 AODV 100 [0 ffffffff 1 800] ------- [1:255 -1:255 30 0] [0x2 1 1 [0 0] [1 4]] (REQUEST)
r 0.301375471 _0_ MAC  --- 0 AODV 48 [0 ffffffff 1 800] ------- [1:255 -1:255 30 0] [0x2 1 1 [0 0] [1 4]] (REQUEST)
r 0.301375500 _2_ MAC  --- 0 AODV 48 [0 ffffffff 1 800] ------- [1:255 -1:255 30 0] [0x2 1 1 [0 0] [1 4]] (REQUEST)
r 0.301400471 _0_ RTR  --- 0 AODV 48 [0 ffffffff 1 800] ------- [1:255 -1:255 30 0] [0x2 1 1 [0 0] [1 4]] (REQUEST)
s 0.301400471 _0_ RTR  --- 0 AODV 44 [0 0 0 0] ------- [0:255 1:255 30 1] [0x4 1 [0 6] 10.000000] (REPLY)
r 0.301400500 _2_ RTR  --- 0 AODV 48 [0 ffffffff 1 800] ------- [1:255 -1:255 30 0] [0x2 1 1 [0 0] [1 4]] (REQUEST)
s 0.302025471 _0_ MAC  --- 0 AODV 100 [0 ffffffff 0 800] ------- [0:255 -1:255 30 0] [0x2 1 1 [2 0] [0 4]] (REQUEST)
s 0.302282320 _2_ RTR  --- 0 AODV 48 [0 ffffffff 1 800] ------- [2:255 -1:255 29 0] [0x2 2 1 [0 0] [1 4]] (REQUEST)
r 0.302825943 _1_ MAC  --- 0 AODV 48 [0 ffffffff 0 800] ------- [0:255 -1:255 30 0] [0x2 1 1 [2 0] [0 4]] (REQUEST)
r 0.302850943 _1_ RTR  --- 0 AODV 48 [0 ffffffff 0 800] ------- [0:255 -1:255 30 0] [0x2 1 1 [2 0] [0 4]] (REQUEST)
s 0.302850943 _1_ RTR  --- 1 cbr 1020 [0 0 0 0] ------- [1:0 0:0 30 0] [0] 0 0
s 0.302895471 _0_ MAC  --- 0 ARP 80 [0 ffffffff 0 806] ------- [REQUEST 0/0 0/1]
r 0.303535943 _1_ MAC  --- 0 ARP 28 [0 ffffffff 0 806] ------- [REQUEST 0/0 0/1]
s 0.304465943 _1_ MAC  --- 0 ARP 80 [0 ffffffff 1 806] ------- [REQUEST 1/1 0/0]
r 0.305106414 _0_ MAC  --- 0 ARP 28 [0 ffffffff 1 806] ------- [REQUEST 1/1 0/0]
r 0.305106443 _2_ MAC  --- 0 ARP 28 [0 ffffffff 1 806] ------- [REQUEST 1/1 0/0]
s 0.305256443 _2_ MAC  --- 0 AODV 100 [0 ffffffff 2 800] ------- [2:255 -1:255 29 0] [0x2 2 1 [0 0] [1 4]] (REQUEST)
r 0.306056943 _1_ MAC  --- 0 AODV 48 [0 ffffffff 2 800] ------- [2:255 -1:255 29 0] [0x2 2 1 [0 0] [1 4]] (REQUEST)
r 0.306081943 _1_ RTR  --- 0 AODV 48 [0 ffffffff 2 800] ------- [2:255 -1:255 29 0] [0x2 2 1 [0 0] [1 4]] (REQUEST)
s 0.306426943 _1_ MAC  --- 0 RTS 44 [23fe 0 1 0] 
r 0.306779414 _0_ MAC  --- 0 RTS 44 [23fe 0 1 0] 
s 0.306789414 _0_ MAC  --- 0 CTS 38 [22c4 1 0 0] 
r 0.307093886 _1_ MAC  --- 0 CTS 38 [22c4 1 0 0] 
s 0.307103886 _1_ MAC  --- 1 cbr 1072 [13a 0 1 800] ------- [1:0 0:0 30 0] [0] 0 0
s 0.310004056 _1_ RTR  --- 0 AODV 48 [0 ffffffff 0 800] ------- [1:255 -1:255 29 0] [0x2 2 1 [2 0] [0 4]] (REQUEST)
r 0.315000000 _0_ RTR  --- 2 cbr 1000 [0 0 0 0] ------- [0:1 2:0 32 0] [1] 0 0
r 0.315000000 _1_ RTR  --- 3 cbr 1000 [0 0 0 0] ------- [1:0 0:0 32 0] [1] 0 0
s 0.315000000 _1_ RTR  --- 3 cbr 1020 [0 0 0 0] ------- [1:0 0:0 30 0] [1] 0 0
r 0.315680357 _0_ MAC  --- 1 cbr 1020 [13a 0 1 800] ------- [1:0 0:0 30 0] [0] 1 0
s 0.315690357 _0_ MAC  --- 0 ACK 38 [0 1 0 0] 
r 0.315994828 _1_ MAC  --- 0 ACK 38 [0 1 0 0] 
s 0.316584828 _1_ MAC  --- 0 AODV 100 [0 ffffffff 1 800] ------- [1:255 -1:255 29 0] [0x2 2 1 [2 0] [0 4]] (REQUEST)
r 0.317385300 _0_ MAC  --- 0 AODV 48 [0 ffffffff 1 800] ------- [1:255 -1:255 29 0] [0x2 2 1 [2 0] [0 4]] (REQUEST)
r 0.317385328 _2_ MAC  --- 0 AODV 48 [0 ffffffff 1 800] ------- [1:255 -1:255 29 0] [0x2 2 1 [2 0] [0 4]] (REQUEST)
r 0.317410300 _0_ RTR  --- 0 AODV 48 [0 ffffffff 1 800] ------- [1:255 -1:255 29 0] [0x2 2 1 [2 0] [0 4]] (REQUEST)
r 0.317410328 _2_ RTR  --- 0 AODV 48 [0 ffffffff 1 800] ------- [1:255 -1:255 29 0] [0x2 2 1 [2 0] [0 4]] (REQUEST)
s 0.317410328 _2_ RTR  --- 0 AODV 44 [0 0 0 0] ------- [2:255 0:255 30 1] [0x4 1 [2 4] 10.000000] (REPLY)
s 0.317874828 _1_ MAC  --- 0 RTS 44 [4fe 0 1 0] 
r 0.318227300 _0_ MAC  --- 0 RTS 44 [4fe 0 1 0] 
s 0.318237300 _0_ MAC  --- 0 CTS 38 [3c4 1 0 0] 
r 0.318541771 _1_ MAC  --- 0 CTS 38 [3c4 1 0 0] 
s 0.318551771 _1_ MAC  --- 0 ARP 80 [13a 0 1 806] ------- [REPLY 1/1 0/0]
r 0.319192243 _0_ MAC  --- 0 ARP 28 [13a 0 1 806] ------- [REPLY 1/1 0/0]
s 0.319202243 _0_ MAC  --- 0 ACK 38 [0 1 0 0] 
r 0.319506714 _1_ MAC  --- 0 ACK 38 [0 1 0 0] 
s 0.319556714 _1_ MAC  --- 0 RTS 44 [23fe 0 1 0] 
r 0.319909185 _0_ MAC  --- 0 RTS 44 [23fe 0 1 0] 
s 0.319919185 _0_ MAC  --- 0 CTS 38 [22c4 1 0 0] 
r 0.320223657 _1_ MAC  --- 0 CTS 38 [22c4 1 0 0] 
s 0.320233657 _1_ MAC  --- 3 cbr 1072 [13a 0 1 800] ------- [1:0 0:0 30 0] [1] 0 0
r 0.328810128 _0_ MAC  --- 3 cbr 1020 [13a 0 1 800] ------- [1:0 0:0 30 0] [1] 1 0
s 0.328820128 _0_ MAC  --- 0 ACK 38 [0 1 0 0] 
r 0.329124600 _1_ MAC  --- 0 ACK 38 [0 1 0 0] 
s 0.329374128 _0_ MAC  --- 0 RTS 44 [57e 1 0 0] 
r 0.329726600 _1_ MAC  --- 0 RTS 44 [57e 1 0 0] 
s 0.329736600 _1_ MAC  --- 0 CTS 38 [444 0 0 0] 
r 0.330000000 _0_ RTR  --- 4 cbr 1000 [0 0 0 0] ------- [0:1 2:0 32 0] [2] 0 0
r 0.330000000 _1_ RTR  --- 5 cbr 1000 [0 0 0 0] ------- [1:0 0:0 32 0] [2] 0 0
s 0.330000000 _1_ RTR  --- 5 cbr 1020 [0 0 0 0] ------- [1:0 0:0 30 0] [2] 0 0
r 0.330041071 _0_ MAC  --- 0 CTS 38 [444 0 0 0] 
s 0.330051071 _0_ MAC  --- 0 AODV 96 [13a 1 0 800] ------- [0:255 1:255 30 1] [0x4 1 [0 6] 10.000000] (REPLY)
r 0.330819542 _1_ MAC  --- 0 AODV 44 [13a 1 0 800] ------- [0:255 1:255 30 1] [0x4 1 [0 6] 10.000000] (REPLY)
s 0.330829542 _1_ MAC  --- 0 ACK 38 [0 0 0 0] 
r 0.330844542 _1_ RTR  --- 0 AODV 44 [13a 1 0 800] ------- [0:255 1:255 30 1] [0x4 1 [0 6] 10.000000] (REPLY)
r 0.331134014 _0_ MAC  --- 0 ACK 38 [0 0 0 0] 
s 0.331424014 _0_ MAC  --- 0 RTS 44 [4fe 1 0 0] 
r 0.331776485 _1_ MAC  --- 0 RTS 44 [4fe 1 0 0] 
s 0.331786485 _1_ MAC  --- 0 CTS 38 [3c4 0 0 0] 
r 0.332090957 _0_ MAC  --- 0 CTS 38 [3c4 0 0 0] 
s 0.332100957 _0_ MAC  --- 0 ARP 80 [13a 1 0 806] ------- [REPLY 0/0 1/1]
r 0.332741428 _1_ MAC  --- 0 ARP 28 [13a 1 0 806] ------- [REPLY 0/0 1/1]
s 0.332751428 _1_ MAC  --- 0 ACK 38 [0 0 0 0] 
r 0.333055899 _0_ MAC  --- 0 ACK 38 [0 0 0 0] 
s 0.333235854 _2_ MAC  --- 0 RTS 44 [57e 1 2 0] 
r 0.333588354 _1_ MAC  --- 0 RTS 44 [57e 1 2 0] 
s 0.333598354 _1_ MAC  --- 0 CTS 38 [444 2 0 0] 
r 0.333902854 _2_ MAC  --- 0 CTS 38 [444 2 0 0] 
s 0.333912854 _2_ MAC  --- 0 AODV 96 [13a 1 2 800] ------- [2:255 0:255 30 1] [0x4 1 [2 4] 10.000000] (REPLY)
r 0.334681354 _1_ MAC  --- 0 AODV 44 [13a 1 2 800] ------- [2:255 0:255 30 1] [0x4 1 [2 4] 10.000000] (REPLY)
s 0.334691354 _1_ MAC  --- 0 ACK 38 [0 2 0 0] 
r 0.334706354 _1_ RTR  --- 0 AODV 44 [13a 1 2 800] ------- [2:255 0:255 30 1] [0x4 1 [2 4] 10.000000] (REPLY)
f 0.334706354 _1_ RTR  --- 0 AODV 44 [13a 1 2 800] ------- [2:255 0:255 29 0] [0x4 2 [2 4] 10.000000] (REPLY)
r 0.334995854 _2_ MAC  --- 0 ACK 38 [0 2 0 0] 
s 0.335225354 _1_ MAC  --- 0 RTS 44 [23fe 0 1 0] 
r 0.335577826 _0_ MAC  --- 0 RTS 44 [23fe 0 1 0] 
s 0.335587826 _0_ MAC  --- 0 CTS 38 [22c4 1 0 0] 
r 0.335892297 _1_ MAC  --- 0 CTS 38 [22c4 1 0 0] 
s 0.335902297 _1_ MAC  --- 5 cbr 1072 [13a 0 1 800] ------- [1:0 0:0 30 0] [2] 0 0
r 0.344478768 _0_ MAC  --- 5 cbr 1020 [13a 0 1 800] ------- [1:0 0:0 30 0] [2] 1 0
s 0.344488768 _0_ MAC  --- 0 ACK 38 [0 1 0 0] 
r 0.344793240 _1_ MAC  --- 0 ACK 38 [0 1 0 0] 
r 0.345000000 _0_ RTR  --- 6 cbr 1000 [0 0 0 0] ------- [0:1 2:0 32 0] [3] 0 0
r 0.345000000 _1_ RTR  --- 7 cbr 1000 [0 0 0 0] ------- [1:0 0:0 32 0] [3] 0 0
s 0.345000000 _1_ RTR  --- 7 cbr 1020 [0 0 0 0] ------- [1:0 0:0 30 0] [3] 0 0
s 0.345403240 _1_ MAC  --- 0 RTS 44 [57e 0 1 0] 
r 0.345755711 _0_ MAC  --- 0 RTS 44 [57e 0 1 0] 
s 0.345765711 _0_ MAC  --- 0 CTS 38 [444 1 0 0] 
r 0.346070183 _1_ MAC  --- 0 CTS 38 [444 1 0 0] 
s 0.346080183 _1_ MAC  --- 0 AODV 96 [13a 0 1 800] ------- [2:255 0:255 29 0] [0x4 2 [2 4] 10.000000] (REPLY)
r 0.346848654 _0_ MAC  --- 0 AODV 44 [13a 0 1 800] ------- [2:255 0:255 29 0] [0x4 2 [2 4] 10.000000] (REPLY)
s 0.346858654 _0_ MAC  --- 0 ACK 38 [0 1 0 0] 
r 0.346873654 _0_ RTR  --- 0 AODV 44 [13a 0 1 800] ------- [2:255 0:255 29 0] [0x4 2 [2 4] 10.000000] (REPLY)
s 0.346873654 _0_ RTR  --- 0 cbr 1020 [0 0 0 0] ------- [0:1 2:0 30 1] [0] 0 0
r 0.347163125 _1_ MAC  --- 0 ACK 38 [0 1 0 0] 
s 0.347232654 _0_ MAC  --- 0 RTS 44 [23fe 1 0 0] 
r 0.347585125 _1_ MAC  --- 0 RTS 44 [23fe 1 0 0] 
s 0.347595125 _1_ MAC  --- 0 CTS 38 [22c4 0 0 0] 
r 0.347899597 _0_ MAC  --- 0 CTS 38 [22c4 0 0 0] 
s 0.347909597 _0_ MAC  --- 0 cbr 1072 [13a 1 0 800] ------- [0:1 2:0 30 1] [0] 0 0
r 0.356486068 _1_ MAC  --- 0 cbr 1020 [13a 1 0 800] ------- [0:1 2:0 30 1] [0] 1 0
s 0.356496068 _1_ MAC  --- 0 ACK 38 [0 0 0 0] 
r 0.356511068 _1_ RTR  --- 0 cbr 1020 [13a 1 0 800] ------- [0:1 2:0 30 1] [0] 1 0
f 0.356511068 _1_ RTR  --- 0 cbr 1020 [13a 1 0 800] ------- [0:1 2:0 29 2] [0] 1 0
r 0.356800540 _0_ MAC  --- 0 ACK 38 [0 0 0 0] 
s 0.356870068 _1_ MAC  --- 0 RTS 44 [23fe 0 1 0] 
s 0.356873654 _0_ RTR  --- 2 cbr 1020 [0 0 0 0] ------- [0:1 2:0 30 1] [1] 0 0
r 0.357222540 _0_ MAC  --- 0 RTS 44 [23fe 0 1 0] 
s 0.357232540 _0_ MAC  --- 0 CTS 38 [22c4 1 0 0] 
r 0.357537011 _1_ MAC  --- 0 CTS 38 [22c4 1 0 0] 
s 0.357547011 _1_ MAC  --- 7 cbr 1072 [13a 0 1 800] ------- [1:0 0:0 30 0] [3] 0 0
r 0.360000000 _0_ RTR  --- 8 cbr 1000 [0 0 0 0] ------- [0:1 2:0 32 0] [4] 0 0
r 0.360000000 _1_ RTR  --- 9 cbr 1000 [0 0 0 0] ------- [1:0 0:0 32 0] [4] 0 0
s 0.360000000 _0_ RTR  --- 8 cbr 1020 [0 0 0 0] ------- [0:1 2:0 30 1] [4] 0 0
s 0.360000000 _1_ RTR  --- 9 cbr 1020 [0 0 0 0] ------- [1:0 0:0 30 0] [4] 0 0
r 0.366123482 _0_ MAC  --- 7 cbr 1020 [13a 0 1 800] ------- [1:0 0:0 30 0] [3] 1 0
s 0.366133482 _0_ MAC  --- 0 ACK 38 [0 1 0 0] 
r 0.366437954 _1_ MAC  --- 0 ACK 38 [0 1 0 0] 
s 0.366873654 _0_ RTR  --- 4 cbr 1020 [0 0 0 0] ------- [0:1 2:0 30 1] [2] 0 0
s 0.366927954 _1_ MAC  --- 0 ARP 80 [0 ffffffff 1 806] ------- [REQUEST 1/1 0/2]
r 0.367568425 _0_ MAC  --- 0 ARP 28 [0 ffffffff 1 806] ------- [REQUEST 1/1 0/2]
r 0.367568454 _2_ MAC  --- 0 ARP 28 [0 ffffffff 1 806] ------- [REQUEST 1/1 0/2]
s 0.367698425 _0_ MAC  --- 0 RTS 44 [23fe 1 0 0] 
r 0.368050897 _1_ MAC  --- 0 RTS 44 [23fe 1 0 0] 
s 0.368060897 _1_ MAC  --- 0 CTS 38 [22c4 0 0 0] 
r 0.368365368 _0_ MAC  --- 0 CTS 38 [22c4 0 0 0] 
s 0.368375368 _0_ MAC  --- 2 cbr 1072 [13a 1 0 800] ------- [0:1 2:0 30 1] [1] 0 0
r 0.375000000 _0_ RTR  --- 10 cbr 1000 [0 0 0 0] ------- [0:1 2:0 32 0] [5] 0 0
r 0.375000000 _1_ RTR  --- 11 cbr 1000 [0 0 0 0] ------- [1:0 0:0 32 0] [5] 0 0
s 0.375000000 _0_ RTR  --- 10 cbr 1020 [0 0 0 0] ------- [0:1 2:0 30 1] [5] 0 0
s 0.375000000 _1_ RTR  --- 11 cbr 1020 [0 0 0 0] ------- [1:0 0:0 30 0] [5] 0 0
s 0.376873654 _0_ RTR  --- 6 cbr 1020 [0 0 0 0] ------- [0:1 2:0 30 1] [3] 0 0
r 0.376951839 _1_ MAC  --- 2 cbr 1020 [13a 1 0 800] ------- [0:1 2:0 30 1] [1] 1 0
s 0.376961839 _1_ MAC  --- 0 ACK 38 [0 0 0 0] 
r 0.376976839 _1_ RTR  --- 2 cbr 1020 [13a 1 0 800] ------- [0:1 2:0 30 1] [1] 1 0
f 0.376976839 _1_ RTR  --- 2 cbr 1020 [13a 1 0 800] ------- [0:1 2:0 29 2] [1] 1 0
D 0.376976839 _1_ IFQ  ARP 0 cbr 1020 [13a 1 1 800] ------- [0:1 2:0 29 2] [0] 1 0
r 0.377266311 _0_ MAC  --- 0 ACK 38 [0 0 0 0] 
s 0.377375839 _1_ MAC  --- 0 RTS 44 [23fe 0 1 0] 
r 0.377728311 _0_ MAC  --- 0 RTS 44 [23fe 0 1 0] 
s 0.377738311 _0_ MAC  --- 0 CTS 38 [22c4 1 0 0] 
r 0.378042782 _1_ MAC  --- 0 CTS 38 [22c4 1 0 0] 
s 0.378052782 _1_ MAC  --- 9 cbr 1072 [13a 0 1 800] ------- [1:0 0:0 30 0] [4] 0 0
r 0.386629254 _0_ MAC  --- 9 cbr 1020 [13a 0 1 800] ------- [1:0 0:0 30 0] [4] 1 0
s 0.386639254 _0_ MAC  --- 0 ACK 38 [0 1 0 0] 
r 0.386943725 _1_ MAC  --- 0 ACK 38 [0 1 0 0] 
s 0.387253254 _0_ MAC  --- 0 RTS 44 [23fe 1 0 0] 
r 0.387605725 _1_ MAC  --- 0 RTS 44 [23fe 1 0 0] 
s 0.387615725 _1_ MAC  --- 0 CTS 38 [22c4 0 0 0] 
r 0.387920197 _0_ MAC  --- 0 CTS 38 [22c4 0 0 0] 
s 0.387930197 _0_ MAC  --- 8 cbr 1072 [13a 1 0 800] ------- [0:1 2:0 30 1] [4] 0 0
r 0.390000000 _0_ RTR  --- 12 cbr 1000 [0 0 0 0] ------- [0:1 2:0 32 0] [6] 0 0
r 0.390000000 _1_ RTR  --- 13 cbr 1000 [0 0 0 0] ------- [1:0 0:0 32 0] [6] 0 0
s 0.390000000 _0_ RTR  --- 12 cbr 1020 [0 0 0 0] ------- [0:1 2:0 30 1] [6] 0 0
s 0.390000000 _1_ RTR  --- 13 cbr 1020 [0 0 0 0] ------- [1:0 0:0 30 0] [6] 0 0
r 0.396506668 _1_ MAC  --- 8 cbr 1020 [13a 1 0 800] ------- [0:1 2:0 30 1] [4] 1 0
s 0.396516668 _1_ MAC  --- 0 ACK 38 [0 0 0 0] 
r 0.396531668 _1_ RTR  --- 8 cbr 1020 [13a 1 0 800] ------- [0:1 2:0 30 1] [4] 1 0
f 0.396531668 _1_ RTR  --- 8 cbr 1020 [13a 1 0 800] ------- [0:1 2:0 29 2] [4] 1 0
D 0.396531668 _1_ IFQ  ARP 2 cbr 1020 [13a 1 1 800] ------- [0:1 2:0 29 2] [1] 1 0
r 0.396821139 _0_ MAC  --- 0 ACK 38 [0 0 0 0] 
s 0.396961094 _2_ MAC  --- 0 RTS 44 [4fe 1 2 0] 
r 0.397313594 _1_ MAC  --- 0 RTS 44 [4fe 1 2 0] 
s 0.397323594 _1_ MAC  --- 0 CTS 38 [3c4 2 0 0] 
r 0.397628094 _2_ MAC  --- 0 CTS 38 [3c4 2 0 0] 
s 0.397638094 _2_ MAC  --- 0 ARP 80 [13a 1 2 806] ------- [REPLY 2/2 1/1]
r 0.398278594 _1_ MAC  --- 0 ARP 28 [13a 1 2 806] ------- [REPLY 2/2 1/1]
s 0.398288594 _1_ MAC  --- 0 ACK 38 [0 2 0 0] 
r 0.398593094 _2_ MAC  --- 0 ACK 38 [0 2 0 0] 
s 0.398702594 _1_ MAC  --- 0 RTS 44 [23fe 0 1 0] 
r 0.399055065 _0_ MAC  --- 0 RTS 44 [23fe 0 1 0] 
s 0.399065065 _0_ MAC  --- 0 CTS 38 [22c4 1 0 0] 
r 0.399369537 _1_ MAC  --- 0 CTS 38 [22c4 1 0 0] 
s 0.399379537 _1_ MAC  --- 11 cbr 1072 [13a 0 1 800] ------- [1:0 0:0 30 0] [5] 0 0
r 0.405000000 _0_ RTR  --- 14 cbr 1000 [0 0 0 0] ------- [0:1 2:0 32 0] [7] 0 0
r 0.405000000 _1_ RTR  --- 15 cbr 1000 [0 0 0 0] ------- [1:0 0:0 32 0] [7] 0 0
s 0.405000000 _0_ RTR  --- 14 cbr 1020 [0 0 0 0] ------- [0:1 2:0 30 1] [7] 0 0
s 0.405000000 _1_ RTR  --- 15 cbr 1020 [0 0 0 0] ------- [1:0 0:0 30 0] [7] 0 0
r 0.407956008 _0_ MAC  --- 11 cbr 1020 [13a 0 1 800] ------- [1:0 0:0 30 0] [5] 1 0
s 0.407966008 _0_ MAC  --- 0 ACK 38 [0 1 0 0] 
r 0.408270480 _1_ MAC  --- 0 ACK 38 [0 1 0 0] 
s 0.408560008 _0_ MAC  --- 0 RTS 44 [23fe 1 0 0] 
r 0.408912480 _1_ MAC  --- 0 RTS 44 [23fe 1 0 0] 
s 0.408922480 _1_ MAC  --- 0 CTS 38 [22c4 0 0 0] 
r 0.409226951 _0_ MAC  --- 0 CTS 38 [22c4 0 0 0] 
s 0.409236951 _0_ MAC  --- 4 cbr 1072 [13a 1 0 800] ------- [0:1 2:0 30 1] [2] 0 0
r 0.417813422 _1_ MAC  --- 4 cbr 1020 [13a 1 0 800] ------- [0:1 2:0 30 1] [2] 1 0
s 0.417823422 _1_ MAC  --- 0 ACK 38 [0 0 0 0] 
r 0.417838422 _1_ RTR  --- 4 cbr 1020 [13a 1 0 800] ------- [0:1 2:0 30 1] [2] 1 0
f 0.417838422 _1_ RTR  --- 4 cbr 1020 [13a 1 0 800] ------- [0:1 2:0 29 2] [2] 1 0
r 0.418127894 _0_ MAC  --- 0 ACK 38 [0 0 0 0] 
s 0.418237894 _0_ MAC  --- 0 RTS 44 [23fe 1 0 0] 
r 0.418590365 _1_ MAC  --- 0 RTS 44 [23fe 1 0 0] 
s 0.418600365 _1_ MAC  --- 0 CTS 38 [22c4 0 0 0] 
r 0.418904837 _0_ MAC  --- 0 CTS 38 [22c4 0 0 0] 
s 0.418914837 _0_ MAC  --- 10 cbr 1072 [13a 1 0 800] ------- [0:1 2:0 30 1] [5] 0 0
r 0.420000000 _0_ RTR  --- 16 cbr 1000 [0 0 0 0] ------- [0:1 2:0 32 0] [8] 0 0
r 0.420000000 _1_ RTR  --- 17 cbr 1000 [0 0 0 0] ------- [1:0 0:0 32 0] [8] 0 0
s 0.420000000 _0_ RTR  --- 16 cbr 1020 [0 0 0 0] ------- [0:1 2:0 30 1] [8] 0 0
s 0.420000000 _1_ RTR  --- 17 cbr 1020 [0 0 0 0] ------- [1:0 0:0 30 0] [8] 0 0
r 0.427491308 _1_ MAC  --- 10 cbr 1020 [13a 1 0 800] ------- [0:1 2:0 30 1] [5] 1 0
s 0.427501308 _1_ MAC  --- 0 ACK 38 [0 0 0 0] 
r 0.427516308 _1_ RTR  --- 10 cbr 1020 [13a 1 0 800] ------- [0:1 2:0 30 1] [5] 1 0
f 0.427516308 _1_ RTR  --- 10 cbr 1020 [13a 1 0 800] ------- [0:1 2:0 29 2] [5] 1 0
r 0.427805779 _0_ MAC  --- 0 ACK 38 [0 0 0 0] 
s 0.427955779 _0_ MAC  --- 0 RTS 44 [23fe 1 0 0] 
r 0.428308251 _1_ MAC  --- 0 RTS 44 [23fe 1 0 0] 
s 0.428318251 _1_ MAC  --- 0 CTS 38 [22c4 0 0 0] 
r 0.428622722 _0_ MAC  --- 0 CTS 38 [22c4 0 0 0] 
s 0.428632722 _0_ MAC  --- 6 cbr 1072 [13a 1 0 800] ------- [0:1 2:0 30 1] [3] 0 0
r 0.435000000 _0_ RTR  --- 18 cbr 1000 [0 0 0 0] ------- [0:1 2:0 32 0] [9] 0 0
r 0.435000000 _1_ RTR  --- 19 cbr 1000 [0 0 0 0] ------- [1:0 0:0 32 0] [9] 0 0
s 0.435000000 _0_ RTR  --- 18 cbr 1020 [0 0 0 0] ------- [0:1 2:0 30 1] [9] 0 0
s 0.435000000 _1_ RTR  --- 19 cbr 1020 [0 0 0 0] ------- [1:0 0:0 30 0] [9] 0 0
r 0.437209194 _1_ MAC  --- 6 cbr 1020 [13a 1 0 800] ------- [0:1 2:0 30 1] [3] 1 0
s 0.437219194 _1_ MAC  --- 0 ACK 38 [0 0 0 0] 
r 0.437234194 _1_ RTR  --- 6 cbr 1020 [13a 1 0 800] ------- [0:1 2:0 30 1] [3] 1 0
f 0.437234194 _1_ RTR  --- 6 cbr 1020 [13a 1 0 800] ------- [0:1 2:0 29 2] [3] 1 0
r 0.437523665 _0_ MAC  --- 0 ACK 38 [0 0 0 0] 
s 0.437613194 _1_ MAC  --- 0 ARP 80 [0 ffffffff 1 806] ------- [REQUEST 1/1 0/2]
r 0.438253665 _0_ MAC  --- 0 ARP 28 [0 ffffffff 1 806] ------- [REQUEST 1/1 0/2]
r 0.438253694 _2_ MAC  --- 0 ARP 28 [0 ffffffff 1 806] ------- [REQUEST 1/1 0/2]
s 0.438468694 _2_ MAC  --- 0 RTS 44 [4fe 1 2 0] 
r 0.438821194 _1_ MAC  --- 0 RTS 44 [4fe 1 2 0] 
s 0.438831194 _1_ MAC  --- 0 CTS 38 [3c4 2 0 0] 
r 0.439135694 _2_ MAC  --- 0 CTS 38 [3c4 2 0 0] 
s 0.439145694 _2_ MAC  --- 0 ARP 80 [13a 1 2 806] ------- [REPLY 2/2 1/1]
r 0.439786194 _1_ MAC  --- 0 ARP 28 [13a 1 2 806] ------- [REPLY 2/2 1/1]
s 0.439796194 _1_ MAC  --- 0 ACK 38 [0 2 0 0] 
r 0.440100694 _2_ MAC  --- 0 ACK 38 [0 2 0 0] 
s 0.440260591 _0_ MAC  --- 0 RTS 44 [23fe 1 0 0] 
r 0.440613063 _1_ MAC  --- 0 RTS 44 [23fe 1 0 0] 
s 0.440623063 _1_ MAC  --- 0 CTS 38 [22c4 0 0 0] 
r 0.440927534 _0_ MAC  --- 0 CTS 38 [22c4 0 0 0] 
s 0.440937534 _0_ MAC  --- 12 cbr 1072 [13a 1 0 800] ------- [0:1 2:0 30 1] [6] 0 0
r 0.449514005 _1_ MAC  --- 12 cbr 1020 [13a 1 0 800] ------- [0:1 2:0 30 1] [6] 1 0
s 0.449524005 _1_ MAC  --- 0 ACK 38 [0 0 0 0] 
r 0.449539005 _1_ RTR  --- 12 cbr 1020 [13a 1 0 800] ------- [0:1 2:0 30 1] [6] 1 0
f 0.449539005 _1_ RTR  --- 12 cbr 1020 [13a 1 0 800] ------- [0:1 2:0 29 2] [6] 1 0
r 0.449828477 _0_ MAC  --- 0 ACK 38 [0 0 0 0] 
s 0.449938005 _1_ MAC  --- 0 RTS 44 [23fe 0 1 0] 
r 0.450000000 _0_ RTR  --- 20 cbr 1000 [0 0 0 0] ------- [0:1 2:0 32 0] [10] 0 0
r 0.450000000 _1_ RTR  --- 21 cbr 1000 [0 0 0 0] ------- [1:0 0:0 32 0] [10] 0 0
s 0.450000000 _0_ RTR  --- 20 cbr 1020 [0 0 0 0] ------- [0:1 2:0 30 1] [10] 0 0
s 0.450000000 _1_ RTR  --- 21 cbr 1020 [0 0 0 0] ------- [1:0 0:0 30 0] [10] 0 0
r 0.450290477 _0_ MAC  --- 0 RTS 44 [23fe 0 1 0] 
s 0.450300477 _0_ MAC  --- 0 CTS 38 [22c4 1 0 0] 
r 0.450604948 _1_ MAC  --- 0 CTS 38 [22c4 1 0 0] 
s 0.450614948 _1_ MAC  --- 13 cbr 1072 [13a 0 1 800] ------- [1:0 0:0 30 0] [6] 0 0
r 0.459191420 _0_ MAC  --- 13 cbr 1020 [13a 0 1 800] ------- [1:0 0:0 30 0] [6] 1 0
s 0.459201420 _0_ MAC  --- 0 ACK 38 [0 1 0 0] 
r 0.459505891 _1_ MAC  --- 0 ACK 38 [0 1 0 0] 
s 0.459635420 _0_ MAC  --- 0 RTS 44 [23fe 1 0 0] 
r 0.459987891 _1_ MAC  --- 0 RTS 44 [23fe 1 0 0] 
s 0.459997891 _1_ MAC  --- 0 CTS 38 [22c4 0 0 0] 
r 0.460302362 _0_ MAC  --- 0 CTS 38 [22c4 0 0 0] 
s 0.460312362 _0_ MAC  --- 14 cbr 1072 [13a 1 0 800] ------- [0:1 2:0 30 1] [7] 0 0
r 0.465000000 _0_ RTR  --- 22 cbr 1000 [0 0 0 0] ------- [0:1 2:0 32 0] [11] 0 0
r 0.465000000 _1_ RTR  --- 23 cbr 1000 [0 0 0 0] ------- [1:0 0:0 32 0] [11] 0 0
s 0.465000000 _0_ RTR  --- 22 cbr 1020 [0 0 0 0] ------- [0:1 2:0 30 1] [11] 0 0
s 0.465000000 _1_ RTR  --- 23 cbr 1020 [0 0 0 0] ------- [1:0 0:0 30 0] [11] 0 0
r 0.468888834 _1_ MAC  --- 14 cbr 1020 [13a 1 0 800] ------- [0:1 2:0 30 1] [7] 1 0
s 0.468898834 _1_ MAC  --- 0 ACK 38 [0 0 0 0] 
r 0.468913834 _1_ RTR  --- 14 cbr 1020 [13a 1 0 800] ------- [0:1 2:0 30 1] [7] 1 0
f 0.468913834 _1_ RTR  --- 14 cbr 1020 [13a 1 0 800] ------- [0:1 2:0 29 2] [7] 1 0
r 0.469203305 _0_ MAC  --- 0 ACK 38 [0 0 0 0] 
s 0.469613305 _0_ MAC  --- 0 RTS 44 [23fe 1 0 0] 
r 0.469965777 _1_ MAC  --- 0 RTS 44 [23fe 1 0 0] 
s 0.469975777 _1_ MAC  --- 0 CTS 38 [22c4 0 0 0] 
r 0.470280248 _0_ MAC  --- 0 CTS 38 [22c4 0 0 0] 
s 0.470290248 _0_ MAC  --- 16 cbr 1072 [13a 1 0 800] ------- [0:1 2:0 30 1] [8] 0 0
r 0.478866719 _1_ MAC  --- 16 cbr 1020 [13a 1 0 800] ------- [0:1 2:0 30 1] [8] 1 0
s 0.478876719 _1_ MAC  --- 0 ACK 38 [0 0 0 0] 
r 0.478891719 _1_ RTR  --- 16 cbr 1020 [13a 1 0 800] ------- [0:1 2:0 30 1] [8] 1 0
f 0.478891719 _1_ RTR  --- 16 cbr 1020 [13a 1 0 800] ------- [0:1 2:0 29 2] [8] 1 0
r 0.479181191 _0_ MAC  --- 0 ACK 38 [0 0 0 0] 
s 0.479350719 _1_ MAC  --- 0 ARP 80 [0 ffffffff 1 806] ------- [REQUEST 1/1 0/2]
r 0.479991191 _0_ MAC  --- 0 ARP 28 [0 ffffffff 1 806] ------- [REQUEST 1/1 0/2]
r 0.479991219 _2_ MAC  --- 0 ARP 28 [0 ffffffff 1 806] ------- [REQUEST 1/1 0/2]
r 0.480000000 _0_ RTR  --- 24 cbr 1000 [0 0 0 0] ------- [0:1 2:0 32 0] [12] 0 0
r 0.480000000 _1_ RTR  --- 25 cbr 1000 [0 0 0 0] ------- [1:0 0:0 32 0] [12] 0 0
s 0.480000000 _0_ RTR  --- 24 cbr 1020 [0 0 0 0] ------- [0:1 2:0 30 1] [12] 0 0
s 0.480000000 _1_ RTR  --- 25 cbr 1020 [0 0 0 0] ------- [1:0 0:0 30 0] [12] 0 0
s 0.480061219 _2_ MAC  --- 0 RTS 44 [4fe 1 2 0] 
r 0.480413719 _1_ MAC  --- 0 RTS 44 [4fe 1 2 0] 
s 0.480423719 _1_ MAC  --- 0 CTS 38 [3c4 2 0 0] 
r 0.480728219 _2_ MAC  --- 0 CTS 38 [3c4 2 0 0] 
s 0.480738219 _2_ MAC  --- 0 ARP 80 [13a 1 2 806] ------- [REPLY 2/2 1/1]
r 0.481378719 _1_ MAC  --- 0 ARP 28 [13a 1 2 806] ------- [REPLY 2/2 1/1]
s 0.481388719 _1_ MAC  --- 0 ACK 38 [0 2 0 0] 
r 0.481693219 _2_ MAC  --- 0 ACK 38 [0 2 0 0] 
s 0.481762719 _1_ MAC  --- 0 RTS 44 [23fe 2 1 0] 
r 0.482115219 _2_ MAC  --- 0 RTS 44 [23fe 2 1 0] 
s 0.482125219 _2_ MAC  --- 0 CTS 38 [22c4 1 0 0] 
r 0.482429719 _1_ MAC  --- 0 CTS 38 [22c4 1 0 0] 
s 0.482439719 _1_ MAC  --- 8 cbr 1072 [13a 2 1 800] ------- [0:1 2:0 29 2] [4] 1 0
r 0.491016219 _2_ MAC  --- 8 cbr 1020 [13a 2 1 800] ------- [0:1 2:0 29 2] [4] 2 0
s 0.491026219 _2_ MAC  --- 0 ACK 38 [0 1 0 0] 
r 0.491330719 _1_ MAC  --- 0 ACK 38 [0 1 0 0] 
s 0.491620719 _1_ MAC  --- 0 RTS 44 [23fe 0 1 0] 
r 0.491973191 _0_ MAC  --- 0 RTS 44 [23fe 0 1 0] 
s 0.491983191 _0_ MAC  --- 0 CTS 38 [22c4 1 0 0] 
r 0.492287662 _1_ MAC  --- 0 CTS 38 [22c4 1 0 0] 
s 0.492297662 _1_ MAC  --- 15 cbr 1072 [13a 0 1 800] ------- [1:0 0:0 30 0] [7] 0 0
r 0.495000000 _0_ RTR  --- 26 cbr 1000 [0 0 0 0] ------- [0:1 2:0 32 0] [13] 0 0
r 0.495000000 _1_ RTR  --- 27 cbr 1000 [0 0 0 0] ------- [1:0 0:0 32 0] [13] 0 0
s 0.495000000 _0_ RTR  --- 26 cbr 1020 [0 0 0 0] ------- [0:1 2:0 30 1] [13] 0 0
s 0.495000000 _1_ RTR  --- 27 cbr 1020 [0 0 0 0] ------- [1:0 0:0 30 0] [13] 0 0
r 0.500874134 _0_ MAC  --- 15 cbr 1020 [13a 0 1 800] ------- [1:0 0:0 30 0] [7] 1 0
s 0.500884134 _0_ MAC  --- 0 ACK 38 [0 1 0 0] 
r 0.501188605 _1_ MAC  --- 0 ACK 38 [0 1 0 0] 
s 0.501318134 _0_ MAC  --- 0 RTS 44 [23fe 1 0 0] 
s 0.501318605 _1_ MAC  --- 0 RTS 44 [23fe 2 1 0] 
D 0.501671105 _2_ MAC  COL 0 RTS 44 [23fe 2 1 0] 
s 0.502725077 _0_ MAC  --- 0 RTS 44 [23fe 1 0 0] 
r 0.503077548 _1_ MAC  --- 0 RTS 44 [23fe 1 0 0] 
s 0.503087548 _1_ MAC  --- 0 CTS 38 [22c4 0 0 0] 
r 0.503392019 _0_ MAC  --- 0 CTS 38 [22c4 0 0 0] 
s 0.503402019 _0_ MAC  --- 18 cbr 1072 [13a 1 0 800] ------- [0:1 2:0 30 1] [9] 0 0
r 0.510000000 _0_ RTR  --- 28 cbr 1000 [0 0 0 0] ------- [0:1 2:0 32 0] [14] 0 0
r 0.510000000 _1_ RTR  --- 29 cbr 1000 [0 0 0 0] ------- [1:0 0:0 32 0] [14] 0 0
s 0.510000000 _0_ RTR  --- 28 cbr 1020 [0 0 0 0] ------- [0:1 2:0 30 1] [14] 0 0
s 0.510000000 _1_ RTR  --- 29 cbr 1020 [0 0 0 0] ------- [1:0 0:0 30 0] [14] 0 0
r 0.511978491 _1_ MAC  --- 18 cbr 1020 [13a 1 0 800] ------- [0:1 2:0 30 1] [9] 1 0
s 0.511988491 _1_ MAC  --- 0 ACK 38 [0 0 0 0] 
r 0.512003491 _1_ RTR  --- 18 cbr 1020 [13a 1 0 800] ------- [0:1 2:0 30 1] [9] 1 0
f 0.512003491 _1_ RTR  --- 18 cbr 1020 [13a 1 0 800] ------- [0:1 2:0 29 2] [9] 1 0
r 0.512292962 _0_ MAC  --- 0 ACK 38 [0 0 0 0] 
s 0.512702491 _1_ MAC  --- 0 RTS 44 [23fe 2 1 0] 
r 0.513054991 _2_ MAC  --- 0 RTS 44 [23fe 2 1 0] 
s 0.513064991 _2_ MAC  --- 0 CTS 38 [22c4 1 0 0] 
r 0.513369491 _1_ MAC  --- 0 CTS 38 [22c4 1 0 0] 
s 0.513379491 _1_ MAC  --- 4 cbr 1072 [13a 2 1 800] ------- [0:1 2:0 29 2] [2] 1 0
r 0.521955991 _2_ MAC  --- 4 cbr 1020 [13a 2 1 800] ------- [0:1 2:0 29 2] [2] 2 0
s 0.521965991 _2_ MAC  --- 0 ACK 38 [0 1 0 0] 
r 0.522270491 _1_ MAC  --- 0 ACK 38 [0 1 0 0] 
s 0.522540491 _1_ MAC  --- 0 RTS 44 [23fe 0 1 0] 
r 0.522892962 _0_ MAC  --- 0 RTS 44 [23fe 0 1 0] 
s 0.522902962 _0_ MAC  --- 0 CTS 38 [22c4 1 0 0] 
r 0.523207434 _1_ MAC  --- 0 CTS 38 [22c4 1 0 0] 
s 0.523217434 _1_ MAC  --- 17 cbr 1072 [13a 0 1 800] ------- [1:0 0:0 30 0] [8] 0 0
r 0.525000000 _0_ RTR  --- 30 cbr 1000 [0 0 0 0] ------- [0:1 2:0 32 0] [15] 0 0
r 0.525000000 _1_ RTR  --- 31 cbr 1000 [0 0 0 0] ------- [1:0 0:0 32 0] [15] 0 0
s 0.525000000 _0_ RTR  --- 30 cbr 1020 [0 0 0 0] ------- [0:1 2:0 30 1] [15] 0 0
s 0.525000000 _1_ RTR  --- 31 cbr 1020 [0 0 0 0] ------- [1:0 0:0 30 0] [15] 0 0
r 0.531793905 _0_ MAC  --- 17 cbr 1020 [13a 0 1 800] ------- [1:0 0:0 30 0] [8] 1 0
s 0.531803905 _0_ MAC  --- 0 ACK 38 [0 1 0 0] 
r 0.532108376 _1_ MAC  --- 0 ACK 38 [0 1 0 0] 
s 0.532158376 _1_ MAC  --- 0 RTS 44 [23fe 2 1 0] 
r 0.532510876 _2_ MAC  --- 0 RTS 44 [23fe 2 1 0] 
s 0.532520876 _2_ MAC  --- 0 CTS 38 [22c4 1 0 0] 
r 0.532825376 _1_ MAC  --- 0 CTS 38 [22c4 1 0 0] 
s 0.532835376 _1_ MAC  --- 10 cbr 1072 [13a 2 1 800] ------- [0:1 2:0 29 2] [5] 1 0
r 0.540000000 _0_ RTR  --- 32 cbr 1000 [0 0 0 0] ------- [0:1 2:0 32 0] [16] 0 0
r 0.540000000 _1_ RTR  --- 33 cbr 1000 [0 0 0 0] ------- [1:0 0:0 32 0] [16] 0 0
s 0.540000000 _0_ RTR  --- 32 cbr 1020 [0 0 0 0] ------- [0:1 2:0 30 1] [16] 0 0
s 0.540000000 _1_ RTR  --- 33 cbr 1020 [0 0 0 0] ------- [1:0 0:0 30 0] [16] 0 0
r 0.541411876 _2_ MAC  --- 10 cbr 1020 [13a 2 1 800] ------- [0:1 2:0 29 2] [5] 2 0
s 0.541421876 _2_ MAC  --- 0 ACK 38 [0 1 0 0] 
r 0.541726376 _1_ MAC  --- 0 ACK 38 [0 1 0 0] 
s 0.542376376 _1_ MAC  --- 0 RTS 44 [23fe 0 1 0] 
r 0.542728848 _0_ MAC  --- 0 RTS 44 [23fe 0 1 0] 
s 0.542738848 _0_ MAC  --- 0 CTS 38 [22c4 1 0 0] 
r 0.543043319 _1_ MAC  --- 0 CTS 38 [22c4 1 0 0] 
s 0.543053319 _1_ MAC  --- 19 cbr 1072 [13a 0 1 800] ------- [1:0 0:0 30 0] [9] 0 0
r 0.551629791 _0_ MAC  --- 19 cbr 1020 [13a 0 1 800] ------- [1:0 0:0 30 0] [9] 1 0
s 0.551639791 _0_ MAC  --- 0 ACK 38 [0 1 0 0] 
r 0.551944262 _1_ MAC  --- 0 ACK 38 [0 1 0 0] 
s 0.552013791 _0_ MAC  --- 0 RTS 44 [23fe 1 0 0] 
r 0.552366262 _1_ MAC  --- 0 RTS 44 [23fe 1 0 0] 
s 0.552376262 _1_ MAC  --- 0 CTS 38 [22c4 0 0 0] 
r 0.552680733 _0_ MAC  --- 0 CTS 38 [22c4 0 0 0] 
s 0.552690733 _0_ MAC  --- 20 cbr 1072 [13a 1 0 800] ------- [0:1 2:0 30 1] [10] 0 0
r 0.555000000 _0_ RTR  --- 34 cbr 1000 [0 0 0 0] ------- [0:1 2:0 32 0] [17] 0 0
r 0.555000000 _1_ RTR  --- 35 cbr 1000 [0 0 0 0] ------- [1:0 0:0 32 0] [17] 0 0
s 0.555000000 _0_ RTR  --- 34 cbr 1020 [0 0 0 0] ------- [0:1 2:0 30 1] [17] 0 0
s 0.555000000 _1_ RTR  --- 35 cbr 1020 [0 0 0 0] ------- [1:0 0:0 30 0] [17] 0 0
r 0.561267205 _1_ MAC  --- 20 cbr 1020 [13a 1 0 800] ------- [0:1 2:0 30 1] [10] 1 0
s 0.561277205 _1_ MAC  --- 0 ACK 38 [0 0 0 0] 
r 0.561292205 _1_ RTR  --- 20 cbr 1020 [13a 1 0 800] ------- [0:1 2:0 30 1] [10] 1 0
f 0.561292205 _1_ RTR  --- 20 cbr 1020 [13a 1 0 800] ------- [0:1 2:0 29 2] [10] 1 0
r 0.561581676 _0_ MAC  --- 0 ACK 38 [0 0 0 0] 
s 0.561651676 _0_ MAC  --- 0 RTS 44 [23fe 1 0 0] 
r 0.562004148 _1_ MAC  --- 0 RTS 44 [23fe 1 0 0] 
s 0.562014148 _1_ MAC  --- 0 CTS 38 [22c4 0 0 0] 
r 0.562318619 _0_ MAC  --- 0 CTS 38 [22c4 0 0 0] 
s 0.562328619 _0_ MAC  --- 22 cbr 1072 [13a 1 0 800] ------- [0:1 2:0 30 1] [11] 0 0
r 0.570000000 _0_ RTR  --- 36 cbr 1000 [0 0 0 0] ------- [0:1 2:0 32 0] [18] 0 0
r 0.570000000 _1_ RTR  --- 37 cbr 1000 [0 0 0 0] ------- [1:0 0:0 32 0] [18] 0 0
s 0.570000000 _0_ RTR  --- 36 cbr 1020 [0 0 0 0] ------- [0:1 2:0 30 1] [18] 0 0
s 0.570000000 _1_ RTR  --- 37 cbr 1020 [0 0 0 0] ------- [1:0 0:0 30 0] [18] 0 0
r 0.570905090 _1_ MAC  --- 22 cbr 1020 [13a 1 0 800] ------- [0:1 2:0 30 1] [11] 1 0
s 0.570915090 _1_ MAC  --- 0 ACK 38 [0 0 0 0] 
r 0.570930090 _1_ RTR  --- 22 cbr 1020 [13a 1 0 800] ------- [0:1 2:0 30 1] [11] 1 0
f 0.570930090 _1_ RTR  --- 22 cbr 1020 [13a 1 0 800] ------- [0:1 2:0 29 2] [11] 1 0
r 0.571219562 _0_ MAC  --- 0 ACK 38 [0 0 0 0] 
s 0.571349562 _0_ MAC  --- 0 RTS 44 [23fe 1 0 0] 
r 0.571702033 _1_ MAC  --- 0 RTS 44 [23fe 1 0 0] 
s 0.571712033 _1_ MAC  --- 0 CTS 38 [22c4 0 0 0] 
r 0.572016505 _0_ MAC  --- 0 CTS 38 [22c4 0 0 0] 
s 0.572026505 _0_ MAC  --- 24 cbr 1072 [13a 1 0 800] ------- [0:1 2:0 30 1] [12] 0 0
r 0.580602976 _1_ MAC  --- 24 cbr 1020 [13a 1 0 800] ------- [0:1 2:0 30 1] [12] 1 0
s 0.580612976 _1_ MAC  --- 0 ACK 38 [0 0 0 0] 
r 0.580627976 _1_ RTR  --- 24 cbr 1020 [13a 1 0 800] ------- [0:1 2:0 30 1] [12] 1 0
f 0.580627976 _1_ RTR  --- 24 cbr 1020 [13a 1 0 800] ------- [0:1 2:0 29 2] [12] 1 0
r 0.580917447 _0_ MAC  --- 0 ACK 38 [0 0 0 0] 
s 0.581166976 _1_ MAC  --- 0 RTS 44 [23fe 2 1 0] 
r 0.581519476 _2_ MAC  --- 0 RTS 44 [23fe 2 1 0] 
s 0.581529476 _2_ MAC  --- 0 CTS 38 [22c4 1 0 0] 
r 0.581833976 _1_ MAC  --- 0 CTS 38 [22c4 1 0 0] 
s 0.581843976 _1_ MAC  --- 6 cbr 1072 [13a 2 1 800] ------- [0:1 2:0 29 2] [3] 1 0
r 0.585000000 _0_ RTR  --- 38 cbr 1000 [0 0 0 0] ------- [0:1 2:0 32 0] [19] 0 0
r 0.585000000 _1_ RTR  --- 39 cbr 1000 [0 0 0 0] ------- [1:0 0:0 32 0] [19] 0 0
s 0.585000000 _0_ RTR  --- 38 cbr 1020 [0 0 0 0] ------- [0:1 2:0 30 1] [19] 0 0
s 0.585000000 _1_ RTR  --- 39 cbr 1020 [0 0 0 0] ------- [1:0 0:0 30 0] [19] 0 0
r 0.590420476 _2_ MAC  --- 6 cbr 1020 [13a 2 1 800] ------- [0:1 2:0 29 2] [3] 2 0
s 0.590430476 _2_ MAC  --- 0 ACK 38 [0 1 0 0] 
r 0.590734976 _1_ MAC  --- 0 ACK 38 [0 1 0 0] 
s 0.590824976 _1_ MAC  --- 0 RTS 44 [23fe 2 1 0] 
r 0.591177476 _2_ MAC  --- 0 RTS 44 [23fe 2 1 0] 
s 0.591187476 _2_ MAC  --- 0 CTS 38 [22c4 1 0 0] 
r 0.591491976 _1_ MAC  --- 0 CTS 38 [22c4 1 0 0] 
s 0.591501976 _1_ MAC  --- 12 cbr 1072 [13a 2 1 800] ------- [0:1 2:0 29 2] [6] 1 0
r 0.600000000 _0_ RTR  --- 40 cbr 1000 [0 0 0 0] ------- [0:1 2:0 32 0] [20] 0 0
r 0.600000000 _1_ RTR  --- 41 cbr 1000 [0 0 0 0] ------- [1:0 0:0 32 0] [20] 0 0
s 0.600000000 _0_ RTR  --- 40 cbr 1020 [0 0 0 0] ------- [0:1 2:0 30 1] [20] 0 0
s 0.600000000 _1_ RTR  --- 41 cbr 1020 [0 0 0 0] ------- [1:0 0:0 30 0] [20] 0 0
r 0.600078476 _2_ MAC  --- 12 cbr 1020 [13a 2 1 800] ------- [0:1 2:0 29 2] [6] 2 0