n -t * -s 0  -x 0 -y 0 -Z 0 -z 30  -v circle -c black
n -t * -s 1  -x 0 -y 0 -Z 0 -z 30  -v circle -c black
n -t * -s 2  -x 0 -y 0 -Z 0 -z 30  -v circle -c black
n -t * -s 3  -x 0 -y 0 -Z 0 -z 30  -v circle -c black
n -t * -s 4  -x 0 -y 0 -Z 0 -z 30  -v circle -c black
n -t * -s 5  -x 0 -y 0 -Z 0 -z 30  -v circle -c black
V -t * -v 1.0a5 -a 0
W -t * -x 1200 -y 1200
A -t * -n 1 -p 0 -o 0x7fffffff -c 30 -a 1
A -t * -h 1 -m 1073741823 -s 0
c -t * -i 4 -n brown
c -t * -i 0 -n blue
c -t * -i 5 -n tan
c -t * -i 1 -n red
c -t * -i 6 -n gold
c -t * -i 2 -n chocolate
c -t * -i 7 -n black
c -t * -i 3 -n red
n -t 0.000000 -s 0 -x 100.000000 -y 100.000000 -U 0.000000 -V 0.000000 -T 0.000000
n -t 0.000000 -s 1 -x 300.000000 -y 200.000000 -U 0.000000 -V 2000.000000 -T 0.105000
n -t 0.000000 -s 2 -x 500.000000 -y 200.000000 -U 0.000000 -V 2000.000000 -T 0.105000
n -t 0.000000 -s 3 -x 700.000000 -y 200.000000 -U 0.000000 -V 2000.000000 -T 0.105000
n -t 0.000000 -s 4 -x 900.000000 -y 200.000000 -U 0.000000 -V 2000.000000 -T 0.105000
n -t 0.000000 -s 5 -x 100.000000 -y 100.000000 -U 2000.000000 -V 0.000000 -T 0.105000
+ -t 0.300000000 -s 0 -d -1 -p AODV -e 48 -c 2 -a 0 -i 0 -k RTR 
- -t 0.300000000 -s 0 -d -1 -p AODV -e 48 -c 2 -a 0 -i 0 -k RTR
h -t 0.300000000 -s 0 -d -1 -p AODV -e 48 -c 2 -a 0 -i 0 -k RTR
+ -t 0.300575000 -s 0 -d -1 -p AODV -e 106 -c 2 -a 0 -i 0 -k MAC 
- -t 0.300575000 -s 0 -d -1 -p AODV -e 106 -c 2 -a 0 -i 0 -k MAC
h -t 0.300575000 -s 0 -d -1 -p AODV -e 106 -c 2 -a 0 -i 0 -k MAC
r -t 0.301423700 -s 5 -d -1 -p AODV -e 48 -c 2 -a 0 -i 0 -k MAC
r -t 0.301448700 -s 5 -d -1 -p AODV -e 48 -c 2 -a 0 -i 0 -k RTR
+ -t 0.301448700 -s 5 -d 0 -p AODV -e 44 -c 2 -a 0 -i 0 -k RTR 
- -t 0.301448700 -s 5 -d 0 -p AODV -e 44 -c 2 -a 0 -i 0 -k RTR
h -t 0.301448700 -s 5 -d 0 -p AODV -e 44 -c 2 -a 0 -i 0 -k RTR
+ -t 0.301743700 -s 5 -d -1 -p ARP -e 86 -c 2 -a 0 -i 0 -k MAC 
- -t 0.301743700 -s 5 -d -1 -p ARP -e 86 -c 2 -a 0 -i 0 -k MAC
h -t 0.301743700 -s 5 -d -1 -p ARP -e 86 -c 2 -a 0 -i 0 -k MAC
r -t 0.302432400 -s 0 -d -1 -p ARP -e 28 -c 2 -a 0 -i 0 -k MAC
+ -t 0.303087400 -s 0 -d -1 -p RTS -e 44 -c 2 -a 0 -i 0 -k MAC 
- -t 0.303087400 -s 0 -d -1 -p RTS -e 44 -c 2 -a 0 -i 0 -k MAC
h -t 0.303087400 -s 0 -d -1 -p RTS -e 44 -c 2 -a 0 -i 0 -k MAC
r -t 0.303440100 -s 5 -d -1 -p RTS -e 44 -c 2 -a 0 -i 0 -k MAC
+ -t 0.303450100 -s 5 -d -1 -p CTS -e 38 -c 2 -a 0 -i 0 -k MAC 
- -t 0.303450100 -s 5 -d -1 -p CTS -e 38 -c 2 -a 0 -i 0 -k MAC
h -t 0.303450100 -s 5 -d -1 -p CTS -e 38 -c 2 -a 0 -i 0 -k MAC
r -t 0.303754800 -s 0 -d -1 -p CTS -e 38 -c 2 -a 0 -i 0 -k MAC
+ -t 0.303764800 -s 0 -d -1 -p ARP -e 86 -c 2 -a 0 -i 0 -k MAC 
- -t 0.303764800 -s 0 -d -1 -p ARP -e 86 -c 2 -a 0 -i 0 -k MAC
h -t 0.303764800 -s 0 -d -1 -p ARP -e 86 -c 2 -a 0 -i 0 -k MAC
r -t 0.304453500 -s 5 -d -1 -p ARP -e 28 -c 2 -a 0 -i 0 -k MAC
+ -t 0.304463500 -s 5 -d -1 -p ACK -e 38 -c 2 -a 0 -i 0 -k MAC 
- -t 0.304463500 -s 5 -d -1 -p ACK -e 38 -c 2 -a 0 -i 0 -k MAC
h -t 0.304463500 -s 5 -d -1 -p ACK -e 38 -c 2 -a 0 -i 0 -k MAC
r -t 0.304768200 -s 0 -d -1 -p ACK -e 38 -c 2 -a 0 -i 0 -k MAC
+ -t 0.304837500 -s 5 -d -1 -p RTS -e 44 -c 2 -a 0 -i 0 -k MAC 
- -t 0.304837500 -s 5 -d -1 -p RTS -e 44 -c 2 -a 0 -i 0 -k MAC
h -t 0.304837500 -s 5 -d -1 -p RTS -e 44 -c 2 -a 0 -i 0 -k MAC
r -t 0.305190200 -s 0 -d -1 -p RTS -e 44 -c 2 -a 0 -i 0 -k MAC
+ -t 0.305200200 -s 0 -d -1 -p CTS -e 38 -c 2 -a 0 -i 0 -k MAC 
- -t 0.305200200 -s 0 -d -1 -p CTS -e 38 -c 2 -a 0 -i 0 -k MAC
h -t 0.305200200 -s 0 -d -1 -p CTS -e 38 -c 2 -a 0 -i 0 -k MAC
r -t 0.305504900 -s 5 -d -1 -p CTS -e 38 -c 2 -a 0 -i 0 -k MAC
+ -t 0.305514900 -s 5 -d 0 -p AODV -e 102 -c 2 -a 0 -i 0 -k MAC 
- -t 0.305514900 -s 5 -d 0 -p AODV -e 102 -c 2 -a 0 -i 0 -k MAC
h -t 0.305514900 -s 5 -d 0 -p AODV -e 102 -c 2 -a 0 -i 0 -k MAC
r -t 0.306331600 -s 0 -d 0 -p AODV -e 44 -c 2 -a 0 -i 0 -k MAC
+ -t 0.306341600 -s 0 -d -1 -p ACK -e 38 -c 2 -a 0 -i 0 -k MAC 
- -t 0.306341600 -s 0 -d -1 -p ACK -e 38 -c 2 -a 0 -i 0 -k MAC
h -t 0.306341600 -s 0 -d -1 -p ACK -e 38 -c 2 -a 0 -i 0 -k MAC
+ -t 0.306356600 -s 0 -d 5 -p tcp -e 40 -c 2 -a 0 -i 0 -k RTR 
- -t 0.306356600 -s 0 -d 5 -p tcp -e 40 -c 2 -a 0 -i 0 -k RTR
h -t 0.306356600 -s 0 -d 5 -p tcp -e 40 -c 2 -a 0 -i 0 -k RTR
r -t 0.306646300 -s 5 -d -1 -p ACK -e 38 -c 2 -a 0 -i 0 -k MAC
+ -t 0.306795600 -s 0 -d -1 -p RTS -e 44 -c 2 -a 0 -i 0 -k MAC 
- -t 0.306795600 -s 0 -d -1 -p RTS -e 44 -c 2 -a 0 -i 0 -k MAC
h -t 0.306795600 -s 0 -d -1 -p RTS -e 44 -c 2 -a 0 -i 0 -k MAC
r -t 0.307148300 -s 5 -d -1 -p RTS -e 44 -c 2 -a 0 -i 0 -k MAC
+ -t 0.307158300 -s 5 -d -1 -p CTS -e 38 -c 2 -a 0 -i 0 -k MAC 
- -t 0.307158300 -s 5 -d -1 -p CTS -e 38 -c 2 -a 0 -i 0 -k MAC
h -t 0.307158300 -s 5 -d -1 -p CTS -e 38 -c 2 -a 0 -i 0 -k MAC
r -t 0.307463000 -s 0 -d -1 -p CTS -e 38 -c 2 -a 0 -i 0 -k MAC
+ -t 0.307473000 -s 0 -d 5 -p tcp -e 98 -c 2 -a 0 -i 0 -k MAC 
- -t 0.307473000 -s 0 -d 5 -p tcp -e 98 -c 2 -a 0 -i 0 -k MAC
h -t 0.307473000 -s 0 -d 5 -p tcp -e 98 -c 2 -a 0 -i 0 -k MAC
r -t 0.308257700 -s 5 -d 5 -p tcp -e 40 -c 2 -a 0 -i 0 -k MAC
+ -t 0.308267700 -s 5 -d -1 -p ACK -e 38 -c 2 -a 0 -i 0 -k MAC 
- -t 0.308267700 -s 5 -d -1 -p ACK -e 38 -c 2 -a 0 -i 0 -k MAC
h -t 0.308267700 -s 5 -d -1 -p ACK -e 38 -c 2 -a 0 -i 0 -k MAC
+ -t 0.308282700 -s 5 -d 0 -p ack -e 40 -c 2 -a 0 -i 1 -k RTR 
- -t 0.308282700 -s 5 -d 0 -p ack -e 40 -c 2 -a 0 -i 1 -k RTR
h -t 0.308282700 -s 5 -d 0 -p ack -e 40 -c 2 -a 0 -i 1 -k RTR
r -t 0.308572400 -s 0 -d -1 -p ACK -e 38 -c 2 -a 0 -i 0 -k MAC
+ -t 0.308781700 -s 5 -d -1 -p RTS -e 44 -c 2 -a 0 -i 0 -k MAC 
- -t 0.308781700 -s 5 -d -1 -p RTS -e 44 -c 2 -a 0 -i 0 -k MAC
h -t 0.308781700 -s 5 -d -1 -p RTS -e 44 -c 2 -a 0 -i 0 -k MAC
r -t 0.309134400 -s 0 -d -1 -p RTS -e 44 -c 2 -a 0 -i 0 -k MAC
+ -t 0.309144400 -s 0 -d -1 -p CTS -e 38 -c 2 -a 0 -i 0 -k MAC 
- -t 0.309144400 -s 0 -d -1 -p CTS -e 38 -c 2 -a 0 -i 0 -k MAC
h -t 0.309144400 -s 0 -d -1 -p CTS -e 38 -c 2 -a 0 -i 0 -k MAC
r -t 0.309449100 -s 5 -d -1 -p CTS -e 38 -c 2 -a 0 -i 0 -k MAC
+ -t 0.309459100 -s 5 -d 0 -p ack -e 98 -c 2 -a 0 -i 1 -k MAC 
- -t 0.309459100 -s 5 -d 0 -p ack -e 98 -c 2 -a 0 -i 1 -k MAC
h -t 0.309459100 -s 5 -d 0 -p ack -e 98 -c 2 -a 0 -i 1 -k MAC
r -t 0.310243800 -s 0 -d 0 -p ack -e 40 -c 2 -a 0 -i 1 -k MAC
+ -t 0.310253800 -s 0 -d -1 -p ACK -e 38 -c 2 -a 0 -i 0 -k MAC 
- -t 0.310253800 -s 0 -d -1 -p ACK -e 38 -c 2 -a 0 -i 0 -k MAC
h -t 0.310253800 -s 0 -d -1 -p ACK -e 38 -c 2 -a 0 -i 0 -k MAC
+ -t 0.310268800 -s 0 -d 5 -p tcp -e 1040 -c 2 -a 0 -i 2 -k RTR 
- -t 0.310268800 -s 0 -d 5 -p tcp -e 1040 -c 2 -a 0 -i 2 -k RTR
h -t 0.310268800 -s 0 -d 5 -p tcp -e 1040 -c 2 -a 0 -i 2 -k RTR
+ -t 0.310268800 -s 0 -d 5 -p tcp -e 1040 -c 2 -a 0 -i 3 -k RTR 
- -t 0.310268800 -s 0 -d 5 -p tcp -e 1040 -c 2 -a 0 -i 3 -k RTR
h -t 0.310268800 -s 0 -d 5 -p tcp -e 1040 -c 2 -a 0 -i 3 -k RTR
r -t 0.310558500 -s 5 -d -1 -p ACK -e 38 -c 2 -a 0 -i 0 -k MAC
+ -t 0.310647800 -s 0 -d -1 -p RTS -e 44 -c 2 -a 0 -i 0 -k MAC 
- -t 0.310647800 -s 0 -d -1 -p RTS -e 44 -c 2 -a 0 -i 0 -k MAC
h -t 0.310647800 -s 0 -d -1 -p RTS -e 44 -c 2 -a 0 -i 0 -k MAC
r -t 0.311000500 -s 5 -d -1 -p RTS -e 44 -c 2 -a 0 -i 0 -k MAC
+ -t 0.311010500 -s 5 -d -1 -p CTS -e 38 -c 2 -a 0 -i 0 -k MAC 
- -t 0.311010500 -s 5 -d -1 -p CTS -e 38 -c 2 -a 0 -i 0 -k MAC
h -t 0.311010500 -s 5 -d -1 -p CTS -e 38 -c 2 -a 0 -i 0 -k MAC
r -t 0.311315200 -s 0 -d -1 -p CTS -e 38 -c 2 -a 0 -i 0 -k MAC
+ -t 0.311325200 -s 0 -d 5 -p tcp -e 1098 -c 2 -a 0 -i 2 -k MAC 
- -t 0.311325200 -s 0 -d 5 -p tcp -e 1098 -c 2 -a 0 -i 2 -k MAC
h -t 0.311325200 -s 0 -d 5 -p tcp -e 1098 -c 2 -a 0 -i 2 -k MAC
r -t 0.320109900 -s 5 -d 5 -p tcp -e 1040 -c 2 -a 0 -i 2 -k MAC
+ -t 0.320119900 -s 5 -d -1 -p ACK -e 38 -c 2 -a 0 -i 0 -k MAC 
- -t 0.320119900 -s 5 -d -1 -p ACK -e 38 -c 2 -a 0 -i 0 -k MAC
h -t 0.320119900 -s 5 -d -1 -p ACK -e 38 -c 2 -a 0 -i 0 -k MAC
+ -t 0.320134900 -s 5 -d 0 -p ack -e 40 -c 2 -a 0 -i 4 -k RTR 
- -t 0.320134900 -s 5 -d 0 -p ack -e 40 -c 2 -a 0 -i 4 -k RTR
h -t 0.320134900 -s 5 -d 0 -p ack -e 40 -c 2 -a 0 -i 4 -k RTR
r -t 0.320424600 -s 0 -d -1 -p ACK -e 38 -c 2 -a 0 -i 0 -k MAC
+ -t 0.320894600 -s 0 -d -1 -p RTS -e 44 -c 2 -a 0 -i 0 -k MAC 
- -t 0.320894600 -s 0 -d -1 -p RTS -e 44 -c 2 -a 0 -i 0 -k MAC
h -t 0.320894600 -s 0 -d -1 -p RTS -e 44 -c 2 -a 0 -i 0 -k MAC
r -t 0.321247300 -s 5 -d -1 -p RTS -e 44 -c 2 -a 0 -i 0 -k MAC
+ -t 0.321257300 -s 5 -d -1 -p CTS -e 38 -c 2 -a 0 -i 0 -k MAC 
- -t 0.321257300 -s 5 -d -1 -p CTS -e 38 -c 2 -a 0 -i 0 -k MAC
h -t 0.321257300 -s 5 -d -1 -p CTS -e 38 -c 2 -a 0 -i 0 -k MAC
r -t 0.321562000 -s 0 -d -1 -p CTS -e 38 -c 2 -a 0 -i 0 -k MAC
+ -t 0.321572000 -s 0 -d 5 -p tcp -e 1098 -c 2 -a 0 -i 3 -k MAC 
- -t 0.321572000 -s 0 -d 5 -p tcp -e 1098 -c 2 -a 0 -i 3 -k MAC
h -t 0.321572000 -s 0 -d 5 -p tcp -e 1098 -c 2 -a 0 -i 3 -k MAC
r -t 0.330356700 -s 5 -d 5 -p tcp -e 1040 -c 2 -a 0 -i 3 -k MAC
+ -t 0.330366700 -s 5 -d -1 -p ACK -e 38 -c 2 -a 0 -i 0 -k MAC 
- -t 0.330366700 -s 5 -d -1 -p ACK -e 38 -c 2 -a 0 -i 0 -k MAC
h -t 0.330366700 -s 5 -d -1 -p ACK -e 38 -c 2 -a 0 -i 0 -k MAC
+ -t 0.330381700 -s 5 -d 0 -p ack -e 40 -c 2 -a 0 -i 5 -k RTR 
- -t 0.330381700 -s 5 -d 0 -p ack -e 40 -c 2 -a 0 -i 5 -k RTR
h -t 0.330381700 -s 5 -d 0 -p ack -e 40 -c 2 -a 0 -i 5 -k RTR
r -t 0.330671400 -s 0 -d -1 -p ACK -e 38 -c 2 -a 0 -i 0 -k MAC
+ -t 0.330880700 -s 5 -d -1 -p RTS -e 44 -c 2 -a 0 -i 0 -k MAC 
- -t 0.330880700 -s 5 -d -1 -p RTS -e 44 -c 2 -a 0 -i 0 -k MAC
h -t 0.330880700 -s 5 -d -1 -p RTS -e 44 -c 2 -a 0 -i 0 -k MAC
r -t 0.331233400 -s 0 -d -1 -p RTS -e 44 -c 2 -a 0 -i 0 -k MAC
+ -t 0.331243400 -s 0 -d -1 -p CTS -e 38 -c 2 -a 0 -i 0 -k MAC 
- -t 0.331243400 -s 0 -d -1 -p CTS -e 38 -c 2 -a 0 -i 0 -k MAC
h -t 0.331243400 -s 0 -d -1 -p CTS -e 38 -c 2 -a 0 -i 0 -k MAC
r -t 0.331548100 -s 5 -d -1 -p CTS -e 38 -c 2 -a 0 -i 0 -k MAC
+ -t 0.331558100 -s 5 -d 0 -p ack -e 98 -c 2 -a 0 -i 4 -k MAC 
- -t 0.331558100 -s 5 -d 0 -p ack -e 98 -c 2 -a 0 -i 4 -k MAC
h -t 0.331558100 -s 5 -d 0 -p ack -e 98 -c 2 -a 0 -i 4 -k MAC
r -t 0.332342800 -s 0 -d 0 -p ack -e 40 -c 2 -a 0 -i 4 -k MAC
+ -t 0.332352800 -s 0 -d -1 -p ACK -e 38 -c 2 -a 0 -i 0 -k MAC 
- -t 0.332352800 -s 0 -d -1 -p ACK -e 38 -c 2 -a 0 -i 0 -k MAC
h -t 0.332352800 -s 0 -d -1 -p ACK -e 38 -c 2 -a 0 -i 0 -k MAC
+ -t 0.332367800 -s 0 -d 5 -p tcp -e 1040 -c 2 -a 0 -i 6 -k RTR 
- -t 0.332367800 -s 0 -d 5 -p tcp -e 1040 -c 2 -a 0 -i 6 -k RTR
h -t 0.332367800 -s 0 -d 5 -p tcp -e 1040 -c 2 -a 0 -i 6 -k RTR
+ -t 0.332367800 -s 0 -d 5 -p tcp -e 1040 -c 2 -a 0 -i 7 -k RTR 
- -t 0.332367800 -s 0 -d 5 -p tcp -e 1040 -c 2 -a 0 -i 7 -k RTR
h -t 0.332367800 -s 0 -d 5 -p tcp -e 1040 -c 2 -a 0 -i 7 -k RTR
r -t 0.332657500 -s 5 -d -1 -p ACK -e 38 -c 2 -a 0 -i 0 -k MAC
+ -t 0.332806800 -s 0 -d -1 -p RTS -e 44 -c 2 -a 0 -i 0 -k MAC 
- -t 0.332806800 -s 0 -d -1 -p RTS -e 44 -c 2 -a 0 -i 0 -k MAC
h -t 0.332806800 -s 0 -d -1 -p RTS -e 44 -c 2 -a 0 -i 0 -k MAC
r -t 0.333159500 -s 5 -d -1 -p RTS -e 44 -c 2 -a 0 -i 0 -k MAC
+ -t 0.333169500 -s 5 -d -1 -p CTS -e 38 -c 2 -a 0 -i 0 -k MAC 
- -t 0.333169500 -s 5 -d -1 -p CTS -e 38 -c 2 -a 0 -i 0 -k MAC
h -t 0.333169500 -s 5 -d -1 -p CTS -e 38 -c 2 -a 0 -i 0 -k MAC
r -t 0.333474200 -s 0 -d -1 -p CTS -e 38 -c 2 -a 0 -i 0 -k MAC
+ -t 0.333484200 -s 0 -d 5 -p tcp -e 1098 -c 2 -a 0 -i 6 -k MAC 
- -t 0.333484200 -s 0 -d 5 -p tcp -e 1098 -c 2 -a 0 -i 6 -k MAC
h -t 0.333484200 -s 0 -d 5 -p tcp -e 1098 -c 2 -a 0 -i 6 -k MAC
r -t 0.342268900 -s 5 -d 5 -p tcp -e 1040 -c 2 -a 0 -i 6 -k MAC
+ -t 0.342278900 -s 5 -d -1 -p ACK -e 38 -c 2 -a 0 -i 0 -k MAC 
- -t 0.342278900 -s 5 -d -1 -p ACK -e 38 -c 2 -a 0 -i 0 -k MAC
h -t 0.342278900 -s 5 -d -1 -p ACK -e 38 -c 2 -a 0 -i 0 -k MAC
+ -t 0.342293900 -s 5 -d 0 -p ack -e 40 -c 2 -a 0 -i 8 -k RTR 
- -t 0.342293900 -s 5 -d 0 -p ack -e 40 -c 2 -a 0 -i 8 -k RTR
h -t 0.342293900 -s 5 -d 0 -p ack -e 40 -c 2 -a 0 -i 8 -k RTR
r -t 0.342583600 -s 0 -d -1 -p ACK -e 38 -c 2 -a 0 -i 0 -k MAC
+ -t 0.342793600 -s 0 -d -1 -p RTS -e 44 -c 2 -a 0 -i 0 -k MAC 
- -t 0.342793600 -s 0 -d -1 -p RTS -e 44 -c 2 -a 0 -i 0 -k MAC
h -t 0.342793600 -s 0 -d -1 -p RTS -e 44 -c 2 -a 0 -i 0 -k MAC
r -t 0.343146300 -s 5 -d -1 -p RTS -e 44 -c 2 -a 0 -i 0 -k MAC
+ -t 0.343156300 -s 5 -d -1 -p CTS -e 38 -c 2 -a 0 -i 0 -k MAC 
- -t 0.343156300 -s 5 -d -1 -p CTS -e 38 -c 2 -a 0 -i 0 -k MAC
h -t 0.343156300 -s 5 -d -1 -p CTS -e 38 -c 2 -a 0 -i 0 -k MAC
r -t 0.343461000 -s 0 -d -1 -p CTS -e 38 -c 2 -a 0 -i 0 -k MAC
+ -t 0.343471000 -s 0 -d 5 -p tcp -e 1098 -c 2 -a 0 -i 7 -k MAC 
- -t 0.343471000 -s 0 -d 5 -p tcp -e 1098 -c 2 -a 0 -i 7 -k MAC
h -t 0.343471000 -s 0 -d 5 -p tcp -e 1098 -c 2 -a 0 -i 7 -k MAC
r -t 0.352255700 -s 5 -d 5 -p tcp -e 1040 -c 2 -a 0 -i 7 -k MAC
+ -t 0.352265700 -s 5 -d -1 -p ACK -e 38 -c 2 -a 0 -i 0 -k MAC 
- -t 0.352265700 -s 5 -d -1 -p ACK -e 38 -c 2 -a 0 -i 0 -k MAC
h -t 0.352265700 -s 5 -d -1 -p ACK -e 38 -c 2 -a 0 -i 0 -k MAC
+ -t 0.352280700 -s 5 -d 0 -p ack -e 40 -c 2 -a 0 -i 9 -k RTR 
- -t 0.352280700 -s 5 -d 0 -p ack -e 40 -c 2 -a 0 -i 9 -k RTR
h -t 0.352280700 -s 5 -d 0 -p ack -e 40 -c 2 -a 0 -i 9 -k RTR
r -t 0.352570400 -s 0 -d -1 -p ACK -e 38 -c 2 -a 0 -i 0 -k MAC
+ -t 0.352959700 -s 5 -d -1 -p RTS -e 44 -c 2 -a 0 -i 0 -k MAC 
- -t 0.352959700 -s 5 -d -1 -p RTS -e 44 -c 2 -a 0 -i 0 -k MAC
h -t 0.352959700 -s 5 -d -1 -p RTS -e 44 -c 2 -a 0 -i 0 -k MAC
r -t 0.353312400 -s 0 -d -1 -p RTS -e 44 -c 2 -a 0 -i 0 -k MAC
+ -t 0.353322400 -s 0 -d -1 -p CTS -e 38 -c 2 -a 0 -i 0 -k MAC 
- -t 0.353322400 -s 0 -d -1 -p CTS -e 38 -c 2 -a 0 -i 0 -k MAC
h -t 0.353322400 -s 0 -d -1 -p CTS -e 38 -c 2 -a 0 -i 0 -k MAC
r -t 0.353627100 -s 5 -d -1 -p CTS -e 38 -c 2 -a 0 -i 0 -k MAC
+ -t 0.353637100 -s 5 -d 0 -p ack -e 98 -c 2 -a 0 -i 5 -k MAC 
- -t 0.353637100 -s 5 -d 0 -p ack -e 98 -c 2 -a 0 -i 5 -k MAC
h -t 0.353637100 -s 5 -d 0 -p ack -e 98 -c 2 -a 0 -i 5 -k MAC
r -t 0.354421800 -s 0 -d 0 -p ack -e 40 -c 2 -a 0 -i 5 -k MAC
+ -t 0.354431800 -s 0 -d -1 -p ACK -e 38 -c 2 -a 0 -i 0 -k MAC 
- -t 0.354431800 -s 0 -d -1 -p ACK -e 38 -c 2 -a 0 -i 0 -k MAC
h -t 0.354431800 -s 0 -d -1 -p ACK -e 38 -c 2 -a 0 -i 0 -k MAC
+ -t 0.354446800 -s 0 -d 5 -p tcp -e 1040 -c 2 -a 0 -i 10 -k RTR 
- -t 0.354446800 -s 0 -d 5 -p tcp -e 1040 -c 2 -a 0 -i 10 -k RTR
h -t 0.354446800 -s 0 -d 5 -p tcp -e 1040 -c 2 -a 0 -i 10 -k RTR
+ -t 0.354446800 -s 0 -d 5 -p tcp -e 1040 -c 2 -a 0 -i 11 -k RTR 
- -t 0.354446800 -s 0 -d 5 -p tcp -e 1040 -c 2 -a 0 -i 11 -k RTR
h -t 0.354446800 -s 0 -d 5 -p tcp -e 1040 -c 2 -a 0 -i 11 -k RTR
r -t 0.354736500 -s 5 -d -1 -p ACK -e 38 -c 2 -a 0 -i 0 -k MAC
+ -t 0.354985800 -s 0 -d -1 -p RTS -e 44 -c 2 -a 0 -i 0 -k MAC 
- -t 0.354985800 -s 0 -d -1 -p RTS -e 44 -c 2 -a 0 -i 0 -k MAC
h -t 0.354985800 -s 0 -d -1 -p RTS -e 44 -c 2 -a 0 -i 0 -k MAC
r -t 0.355338500 -s 5 -d -1 -p RTS -e 44 -c 2 -a 0 -i 0 -k MAC
+ -t 0.355348500 -s 5 -d -1 -p CTS -e 38 -c 2 -a 0 -i 0 -k MAC 
- -t 0.355348500 -s 5 -d -1 -p CTS -e 38 -c 2 -a 0 -i 0 -k MAC
h -t 0.355348500 -s 5 -d -1 -p CTS -e 38 -c 2 -a 0 -i 0 -k MAC
r -t 0.355653200 -s 0 -d -1 -p CTS -e 38 -c 2 -a 0 -i 0 -k MAC
+ -t 0.355663200 -s 0 -d 5 -p tcp -e 1098 -c 2 -a 0 -i 10 -k MAC 
- -t 0.355663200 -s 0 -d 5 -p tcp -e 1098 -c 2 -a 0 -i 10 -k MAC
h -t 0.355663200 -s 0 -d 5 -p tcp -e 1098 -c 2 -a 0 -i 10 -k MAC
r -t 0.364447900 -s 5 -d 5 -p tcp -e 1040 -c 2 -a 0 -i 10 -k MAC
+ -t 0.364457900 -s 5 -d -1 -p ACK -e 38 -c 2 -a 0 -i 0 -k MAC 
- -t 0.364457900 -s 5 -d -1 -p ACK -e 38 -c 2 -a 0 -i 0 -k MAC
h -t 0.364457900 -s 5 -d -1 -p ACK -e 38 -c 2 -a 0 -i 0 -k MAC
+ -t 0.364472900 -s 5 -d 0 -p ack -e 40 -c 2 -a 0 -i 12 -k RTR 
- -t 0.364472900 -s 5 -d 0 -p ack -e 40 -c 2 -a 0 -i 12 -k RTR
h -t 0.364472900 -s 5 -d 0 -p ack -e 40 -c 2 -a 0 -i 12 -k RTR
r -t 0.364762600 -s 0 -d -1 -p ACK -e 38 -c 2 -a 0 -i 0 -k MAC
+ -t 0.365071900 -s 5 -d -1 -p RTS -e 44 -c 2 -a 0 -i 0 -k MAC 
- -t 0.365071900 -s 5 -d -1 -p RTS -e 44 -c 2 -a 0 -i 0 -k MAC
h -t 0.365071900 -s 5 -d -1 -p RTS -e 44 -c 2 -a 0 -i 0 -k MAC
r -t 0.365424600 -s 0 -d -1 -p RTS -e 44 -c 2 -a 0 -i 0 -k MAC
+ -t 0.365434600 -s 0 -d -1 -p CTS -e 38 -c 2 -a 0 -i 0 -k MAC 
- -t 0.365434600 -s 0 -d -1 -p CTS -e 38 -c 2 -a 0 -i 0 -k MAC
h -t 0.365434600 -s 0 -d -1 -p CTS -e 38 -c 2 -a 0 -i 0 -k MAC
r -t 0.365739300 -s 5 -d -1 -p CTS -e 38 -c 2 -a 0 -i 0 -k MAC
+ -t 0.365749300 -s 5 -d 0 -p ack -e 98 -c 2 -a 0 -i 8 -k MAC 
- -t 0.365749300 -s 5 -d 0 -p ack -e 98 -c 2 -a 0 -i 8 -k MAC
h -t 0.365749300 -s 5 -d 0 -p ack -e 98 -c 2 -a 0 -i 8 -k MAC
r -t 0.366534000 -s 0 -d 0 -p ack -e 40 -c 2 -a 0 -i 8 -k MAC
+ -t 0.366544000 -s 0 -d -1 -p ACK -e 38 -c 2 -a 0 -i 0 -k MAC 
- -t 0.366544000 -s 0 -d -1 -p ACK -e 38 -c 2 -a 0 -i 0 -k MAC
h -t 0.366544000 -s 0 -d -1 -p ACK -e 38 -c 2 -a 0 -i 0 -k MAC
+ -t 0.366559000 -s 0 -d 5 -p tcp -e 1040 -c 2 -a 0 -i 13 -k RTR 
- -t 0.366559000 -s 0 -d 5 -p tcp -e 1040 -c 2 -a 0 -i 13 -k RTR
h -t 0.366559000 -s 0 -d 5 -p tcp -e 1040 -c 2 -a 0 -i 13 -k RTR
+ -t 0.366559000 -s 0 -d 5 -p tcp -e 1040 -c 2 -a 0 -i 14 -k RTR 
- -t 0.366559000 -s 0 -d 5 -p tcp -e 1040 -c 2 -a 0 -i 14 -k RTR
h -t 0.366559000 -s 0 -d 5 -p tcp -e 1040 -c 2 -a 0 -i 14 -k RTR
r -t 0.366848700 -s 5 -d -1 -p ACK -e 38 -c 2 -a 0 -i 0 -k MAC
+ -t 0.367138700 -s 5 -d -1 -p RTS -e 44 -c 2 -a 0 -i 0 -k MAC 
- -t 0.367138700 -s 5 -d -1 -p RTS -e 44 -c 2 -a 0 -i 0 -k MAC
h -t 0.367138700 -s 5 -d -1 -p RTS -e 44 -c 2 -a 0 -i 0 -k MAC
r -t 0.367491400 -s 0 -d -1 -p RTS -e 44 -c 2 -a 0 -i 0 -k MAC
+ -t 0.367501400 -s 0 -d -1 -p CTS -e 38 -c 2 -a 0 -i 0 -k MAC 
- -t 0.367501400 -s 0 -d -1 -p CTS -e 38 -c 2 -a 0 -i 0 -k MAC
h -t 0.367501400 -s 0 -d -1 -p CTS -e 38 -c 2 -a 0 -i 0 -k MAC
r -t 0.367806100 -s 5 -d -1 -p CTS -e 38 -c 2 -a 0 -i 0 -k MAC
+ -t 0.367816100 -s 5 -d 0 -p ack -e 98 -c 2 -a 0 -i 9 -k MAC 
- -t 0.367816100 -s 5 -d 0 -p ack -e 98 -c 2 -a 0 -i 9 -k MAC
h -t 0.367816100 -s 5 -d 0 -p ack -e 98 -c 2 -a 0 -i 9 -k MAC
r -t 0.368600800 -s 0 -d 0 -p ack -e 40 -c 2 -a 0 -i 9 -k MAC
+ -t 0.368610800 -s 0 -d -1 -p ACK -e 38 -c 2 -a 0 -i 0 -k MAC 
- -t 0.368610800 -s 0 -d -1 -p ACK -e 38 -c 2 -a 0 -i 0 -k MAC
h -t 0.368610800 -s 0 -d -1 -p ACK -e 38 -c 2 -a 0 -i 0 -k MAC
+ -t 0.368625800 -s 0 -d 5 -p tcp -e 1040 -c 2 -a 0 -i 15 -k RTR 
- -t 0.368625800 -s 0 -d 5 -p tcp -e 1040 -c 2 -a 0 -i 15 -k RTR
h -t 0.368625800 -s 0 -d 5 -p tcp -e 1040 -c 2 -a 0 -i 15 -k RTR
+ -t 0.368625800 -s 0 -d 5 -p tcp -e 1040 -c 2 -a 0 -i 16 -k RTR 
- -t 0.368625800 -s 0 -d 5 -p tcp -e 1040 -c 2 -a 0 -i 16 -k RTR
h -t 0.368625800 -s 0 -d 5 -p tcp -e 1040 -c 2 -a 0 -i 16 -k RTR
r -t 0.368915500 -s 5 -d -1 -p ACK -e 38 -c 2 -a 0 -i 0 -k MAC
+ -t 0.368965500 -s 5 -d -1 -p RTS -e 44 -c 2 -a 0 -i 0 -k MAC 
- -t 0.368965500 -s 5 -d -1 -p RTS -e 44 -c 2 -a 0 -i 0 -k MAC
h -t 0.368965500 -s 5 -d -1 -p RTS -e 44 -c 2 -a 0 -i 0 -k MAC
r -t 0.369318200 -s 0 -d -1 -p RTS -e 44 -c 2 -a 0 -i 0 -k MAC
+ -t 0.369328200 -s 0 -d -1 -p CTS -e 38 -c 2 -a 0 -i 0 -k MAC 
- -t 0.369328200 -s 0 -d -1 -p CTS -e 38 -c 2 -a 0 -i 0 -k MAC
h -t 0.369328200 -s 0 -d -1 -p CTS -e 38 -c 2 -a 0 -i 0 -k MAC
r -t 0.369632900 -s 5 -d -1 -p CTS -e 38 -c 2 -a 0 -i 0 -k MAC
+ -t 0.369642900 -s 5 -d 0 -p ack -e 98 -c 2 -a 0 -i 12 -k MAC 
- -t 0.369642900 -s 5 -d 0 -p ack -e 98 -c 2 -a 0 -i 12 -k MAC
h -t 0.369642900 -s 5 -d 0 -p ack -e 98 -c 2 -a 0 -i 12 -k MAC
r -t 0.370427600 -s 0 -d 0 -p ack -e 40 -c 2 -a 0 -i 12 -k MAC
+ -t 0.370437600 -s 0 -d -1 -p ACK -e 38 -c 2 -a 0 -i 0 -k MAC 
- -t 0.370437600 -s 0 -d -1 -p ACK -e 38 -c 2 -a 0 -i 0 -k MAC
h -t 0.370437600 -s 0 -d -1 -p ACK -e 38 -c 2 -a 0 -i 0 -k MAC
+ -t 0.370452600 -s 0 -d 5 -p tcp -e 1040 -c 2 -a 0 -i 17 -k RTR 
- -t 0.370452600 -s 0 -d 5 -p tcp -e 1040 -c 2 -a 0 -i 17 -k RTR
h -t 0.370452600 -s 0 -d 5 -p tcp -e 1040 -c 2 -a 0 -i 17 -k RTR
+ -t 0.370452600 -s 0 -d 5 -p tcp -e 1040 -c 2 -a 0 -i 18 -k RTR 
- -t 0.370452600 -s 0 -d 5 -p tcp -e 1040 -c 2 -a 0 -i 18 -k RTR
h -t 0.370452600 -s 0 -d 5 -p tcp -e 1040 -c 2 -a 0 -i 18 -k RTR
r -t 0.370742300 -s 5 -d -1 -p ACK -e 38 -c 2 -a 0 -i 0 -k MAC
+ -t 0.370811600 -s 0 -d -1 -p RTS -e 44 -c 2 -a 0 -i 0 -k MAC 
- -t 0.370811600 -s 0 -d -1 -p RTS -e 44 -c 2 -a 0 -i 0 -k MAC
h -t 0.370811600 -s 0 -d -1 -p RTS -e 44 -c 2 -a 0 -i 0 -k MAC
r -t 0.371164300 -s 5 -d -1 -p RTS -e 44 -c 2 -a 0 -i 0 -k MAC
+ -t 0.371174300 -s 5 -d -1 -p CTS -e 38 -c 2 -a 0 -i 0 -k MAC 
- -t 0.371174300 -s 5 -d -1 -p CTS -e 38 -c 2 -a 0 -i 0 -k MAC
h -t 0.371174300 -s 5 -d -1 -p CTS -e 38 -c 2 -a 0 -i 0 -k MAC
r -t 0.371479000 -s 0 -d -1 -p CTS -e 38 -c 2 -a 0 -i 0 -k MAC
+ -t 0.371489000 -s 0 -d 5 -p tcp -e 1098 -c 2 -a 0 -i 11 -k MAC 
- -t 0.371489000 -s 0 -d 5 -p tcp -e 1098 -c 2 -a 0 -i 11 -k MAC
h -t 0.371489000 -s 0 -d 5 -p tcp -e 1098 -c 2 -a 0 -i 11 -k MAC
r -t 0.380273700 -s 5 -d 5 -p tcp -e 1040 -c 2 -a 0 -i 11 -k MAC
+ -t 0.380283700 -s 5 -d -1 -p ACK -e 38 -c 2 -a 0 -i 0 -k MAC 
- -t 0.380283700 -s 5 -d -1 -p ACK -e 38 -c 2 -a 0 -i 0 -k MAC
h -t 0.380283700 -s 5 -d -1 -p ACK -e 38 -c 2 -a 0 -i 0 -k MAC
+ -t 0.380298700 -s 5 -d 0 -p ack -e 40 -c 2 -a 0 -i 19 -k RTR 
- -t 0.380298700 -s 5 -d 0 -p ack -e 40 -c 2 -a 0 -i 19 -k RTR
h -t 0.380298700 -s 5 -d 0 -p ack -e 40 -c 2 -a 0 -i 19 -k RTR
r -t 0.380588400 -s 0 -d -1 -p ACK -e 38 -c 2 -a 0 -i 0 -k MAC
+ -t 0.380757700 -s 5 -d -1 -p RTS -e 44 -c 2 -a 0 -i 0 -k MAC 
- -t 0.380757700 -s 5 -d -1 -p RTS -e 44 -c 2 -a 0 -i 0 -k MAC
h -t 0.380757700 -s 5 -d -1 -p RTS -e 44 -c 2 -a 0 -i 0 -k MAC
r -t 0.381110400 -s 0 -d -1 -p RTS -e 44 -c 2 -a 0 -i 0 -k MAC
+ -t 0.381120400 -s 0 -d -1 -p CTS -e 38 -c 2 -a 0 -i 0 -k MAC 
- -t 0.381120400 -s 0 -d -1 -p CTS -e 38 -c 2 -a 0 -i 0 -k MAC
h -t 0.381120400 -s 0 -d -1 -p CTS -e 38 -c 2 -a 0 -i 0 -k MAC
r -t 0.381425100 -s 5 -d -1 -p CTS -e 38 -c 2 -a 0 -i 0 -k MAC
+ -t 0.381435100 -s 5 -d 0 -p ack -e 98 -c 2 -a 0 -i 19 -k MAC 
- -t 0.381435100 -s 5 -d 0 -p ack -e 98 -c 2 -a 0 -i 19 -k MAC
h -t 0.381435100 -s 5 -d 0 -p ack -e 98 -c 2 -a 0 -i 19 -k MAC
r -t 0.382219800 -s 0 -d 0 -p ack -e 40 -c 2 -a 0 -i 19 -k MAC
+ -t 0.382229800 -s 0 -d -1 -p ACK -e 38 -c 2 -a 0 -i 0 -k MAC 
- -t 0.382229800 -s 0 -d -1 -p ACK -e 38 -c 2 -a 0 -i 0 -k MAC
h -t 0.382229800 -s 0 -d -1 -p ACK -e 38 -c 2 -a 0 -i 0 -k MAC
+ -t 0.382244800 -s 0 -d 5 -p tcp -e 1040 -c 2 -a 0 -i 20 -k RTR 
- -t 0.382244800 -s 0 -d 5 -p tcp -e 1040 -c 2 -a 0 -i 20 -k RTR
h -t 0.382244800 -s 0 -d 5 -p tcp -e 1040 -c 2 -a 0 -i 20 -k RTR
+ -t 0.382244800 -s 0 -d 5 -p tcp -e 1040 -c 2 -a 0 -i 21 -k RTR 
- -t 0.382244800 -s 0 -d 5 -p tcp -e 1040 -c 2 -a 0 -i 21 -k RTR
h -t 0.382244800 -s 0 -d 5 -p tcp -e 1040 -c 2 -a 0 -i 21 -k RTR
r -t 0.382534500 -s 5 -d -1 -p ACK -e 38 -c 2 -a 0 -i 0 -k MAC
+ -t 0.383003800 -s 0 -d -1 -p RTS -e 44 -c 2 -a 0 -i 0 -k MAC 
- -t 0.383003800 -s 0 -d -1 -p RTS -e 44 -c 2 -a 0 -i 0 -k MAC
h -t 0.383003800 -s 0 -d -1 -p RTS -e 44 -c 2 -a 0 -i 0 -k MAC
r -t 0.383356500 -s 5 -d -1 -p RTS -e 44 -c 2 -a 0 -i 0 -k MAC
+ -t 0.383366500 -s 5 -d -1 -p CTS -e 38 -c 2 -a 0 -i 0 -k MAC 
- -t 0.383366500 -s 5 -d -1 -p CTS -e 38 -c 2 -a 0 -i 0 -k MAC
h -t 0.383366500 -s 5 -d -1 -p CTS -e 38 -c 2 -a 0 -i 0 -k MAC
r -t 0.383671200 -s 0 -d -1 -p CTS -e 38 -c 2 -a 0 -i 0 -k MAC
+ -t 0.383681200 -s 0 -d 5 -p tcp -e 1098 -c 2 -a 0 -i 13 -k MAC 
- -t 0.383681200 -s 0 -d 5 -p tcp -e 1098 -c 2 -a 0 -i 13 -k MAC
h -t 0.383681200 -s 0 -d 5 -p tcp -e 1098 -c 2 -a 0 -i 13 -k MAC
r -t 0.392465900 -s 5 -d 5 -p tcp -e 1040 -c 2 -a 0 -i 13 -k MAC
+ -t 0.392475900 -s 5 -d -1 -p ACK -e 38 -c 2 -a 0 -i 0 -k MAC 
- -t 0.392475900 -s 5 -d -1 -p ACK -e 38 -c 2 -a 0 -i 0 -k MAC
h -t 0.392475900 -s 5 -d -1 -p ACK -e 38 -c 2 -a 0 -i 0 -k MAC
+ -t 0.392490900 -s 5 -d 0 -p ack -e 40 -c 2 -a 0 -i 22 -k RTR 
- -t 0.392490900 -s 5 -d 0 -p ack -e 40 -c 2 -a 0 -i 22 -k RTR
h -t 0.392490900 -s 5 -d 0 -p ack -e 40 -c 2 -a 0 -i 22 -k RTR
r -t 0.392780600 -s 0 -d -1 -p ACK -e 38 -c 2 -a 0 -i 0 -k MAC
+ -t 0.392969900 -s 5 -d -1 -p RTS -e 44 -c 2 -a 0 -i 0 -k MAC 
- -t 0.392969900 -s 5 -d -1 -p RTS -e 44 -c 2 -a 0 -i 0 -k MAC
h -t 0.392969900 -s 5 -d -1 -p RTS -e 44 -c 2 -a 0 -i 0 -k MAC
r -t 0.393322600 -s 0 -d -1 -p RTS -e 44 -c 2 -a 0 -i 0 -k MAC
+ -t 0.393332600 -s 0 -d -1 -p CTS -e 38 -c 2 -a 0 -i 0 -k MAC 
- -t 0.393332600 -s 0 -d -1 -p CTS -e 38 -c 2 -a 0 -i 0 -k MAC
h -t 0.393332600 -s 0 -d -1 -p CTS -e 38 -c 2 -a 0 -i 0 -k MAC
r -t 0.393637300 -s 5 -d -1 -p CTS -e 38 -c 2 -a 0 -i 0 -k MAC
+ -t 0.393647300 -s 5 -d 0 -p ack -e 98 -c 2 -a 0 -i 22 -k MAC 
- -t 0.393647300 -s 5 -d 0 -p ack -e 98 -c 2 -a 0 -i 22 -k MAC
h -t 0.393647300 -s 5 -d 0 -p ack -e 98 -c 2 -a 0 -i 22 -k MAC
r -t 0.394432000 -s 0 -d 0 -p ack -e 40 -c 2 -a 0 -i 22 -k MAC
+ -t 0.394442000 -s 0 -d -1 -p ACK -e 38 -c 2 -a 0 -i 0 -k MAC 
- -t 0.394442000 -s 0 -d -1 -p ACK -e 38 -c 2 -a 0 -i 0 -k MAC
h -t 0.394442000 -s 0 -d -1 -p ACK -e 38 -c 2 -a 0 -i 0 -k MAC
+ -t 0.394457000 -s 0 -d 5 -p tcp -e 1040 -c 2 -a 0 -i 23 -k RTR 
- -t 0.394457000 -s 0 -d 5 -p tcp -e 1040 -c 2 -a 0 -i 23 -k RTR
h -t 0.394457000 -s 0 -d 5 -p tcp -e 1040 -c 2 -a 0 -i 23 -k RTR
+ -t 0.394457000 -s 0 -d 5 -p tcp -e 1040 -c 2 -a 0 -i 24 -k RTR 
- -t 0.394457000 -s 0 -d 5 -p tcp -e 1040 -c 2 -a 0 -i 24 -k RTR
h -t 0.394457000 -s 0 -d 5 -p tcp -e 1040 -c 2 -a 0 -i 24 -k RTR
r -t 0.394746700 -s 5 -d -1 -p ACK -e 38 -c 2 -a 0 -i 0 -k MAC
+ -t 0.395196000 -s 0 -d -1 -p RTS -e 44 -c 2 -a 0 -i 0 -k MAC 
- -t 0.395196000 -s 0 -d -1 -p RTS -e 44 -c 2 -a 0 -i 0 -k MAC
h -t 0.395196000 -s 0 -d -1 -p RTS -e 44 -c 2 -a 0 -i 0 -k MAC
r -t 0.395548700 -s 5 -d -1 -p RTS -e 44 -c 2 -a 0 -i 0 -k MAC
+ -t 0.395558700 -s 5 -d -1 -p CTS -e 38 -c 2 -a 0 -i 0 -k MAC 
- -t 0.395558700 -s 5 -d -1 -p CTS -e 38 -c 2 -a 0 -i 0 -k MAC
h -t 0.395558700 -s 5 -d -1 -p CTS -e 38 -c 2 -a 0 -i 0 -k MAC
r -t 0.395863400 -s 0 -d -1 -p CTS -e 38 -c 2 -a 0 -i 0 -k MAC
+ -t 0.395873400 -s 0 -d 5 -p tcp -e 1098 -c 2 -a 0 -i 14 -k MAC 
- -t 0.395873400 -s 0 -d 5 -p tcp -e 1098 -c 2 -a 0 -i 14 -k MAC
h -t 0.395873400 -s 0 -d 5 -p tcp -e 1098 -c 2 -a 0 -i 14 -k MAC
r -t 0.404658100 -s 5 -d 5 -p tcp -e 1040 -c 2 -a 0 -i 14 -k MAC
+ -t 0.404668100 -s 5 -d -1 -p ACK -e 38 -c 2 -a 0 -i 0 -k MAC 
- -t 0.404668100 -s 5 -d -1 -p ACK -e 38 -c 2 -a 0 -i 0 -k MAC
h -t 0.404668100 -s 5 -d -1 -p ACK -e 38 -c 2 -a 0 -i 0 -k MAC
+ -t 0.404683100 -s 5 -d 0 -p ack -e 40 -c 2 -a 0 -i 25 -k RTR 
- -t 0.404683100 -s 5 -d 0 -p ack -e 40 -c 2 -a 0 -i 25 -k RTR
h -t 0.404683100 -s 5 -d 0 -p ack -e 40 -c 2 -a 0 -i 25 -k RTR
r -t 0.404972800 -s 0 -d -1 -p ACK -e 38 -c 2 -a 0 -i 0 -k MAC
+ -t 0.405042800 -s 0 -d -1 -p RTS -e 44 -c 2 -a 0 -i 0 -k MAC 
- -t 0.405042800 -s 0 -d -1 -p RTS -e 44 -c 2 -a 0 -i 0 -k MAC
h -t 0.405042800 -s 0 -d -1 -p RTS -e 44 -c 2 -a 0 -i 0 -k MAC
r -t 0.405395500 -s 5 -d -1 -p RTS -e 44 -c 2 -a 0 -i 0 -k MAC
+ -t 0.405405500 -s 5 -d -1 -p CTS -e 38 -c 2 -a 0 -i 0 -k MAC 
- -t 0.405405500 -s 5 -d -1 -p CTS -e 38 -c 2 -a 0 -i 0 -k MAC
h -t 0.405405500 -s 5 -d -1 -p CTS -e 38 -c 2 -a 0 -i 0 -k MAC
r -t 0.405710200 -s 0 -d -1 -p CTS -e 38 -c 2 -a 0 -i 0 -k MAC
+ -t 0.405720200 -s 0 -d 5 -p tcp -e 1098 -c 2 -a 0 -i 15 -k MAC 
- -t 0.405720200 -s 0 -d 5 -p tcp -e 1098 -c 2 -a 0 -i 15 -k MAC
h -t 0.405720200 -s 0 -d 5 -p tcp -e 1098 -c 2 -a 0 -i 15 -k MAC
r -t 0.414504900 -s 5 -d 5 -p tcp -e 1040 -c 2 -a 0 -i 15 -k MAC
+ -t 0.414514900 -s 5 -d -1 -p ACK -e 38 -c 2 -a 0 -i 0 -k MAC 
- -t 0.414514900 -s 5 -d -1 -p ACK -e 38 -c 2 -a 0 -i 0 -k MAC
h -t 0.414514900 -s 5 -d -1 -p ACK -e 38 -c 2 -a 0 -i 0 -k MAC
+ -t 0.414529900 -s 5 -d 0 -p ack -e 40 -c 2 -a 0 -i 26 -k RTR 
- -t 0.414529900 -s 5 -d 0 -p ack -e 40 -c 2 -a 0 -i 26 -k RTR
h -t 0.414529900 -s 5 -d 0 -p ack -e 40 -c 2 -a 0 -i 26 -k RTR
r -t 0.414819600 -s 0 -d -1 -p ACK -e 38 -c 2 -a 0 -i 0 -k MAC
+ -t 0.414909600 -s 0 -d -1 -p RTS -e 44 -c 2 -a 0 -i 0 -k MAC 
- -t 0.414909600 -s 0 -d -1 -p RTS -e 44 -c 2 -a 0 -i 0 -k MAC
h -t 0.414909600 -s 0 -d -1 -p RTS -e 44 -c 2 -a 0 -i 0 -k MAC
r -t 0.415262300 -s 5 -d -1 -p RTS -e 44 -c 2 -a 0 -i 0 -k MAC
+ -t 0.415272300 -s 5 -d -1 -p CTS -e 38 -c 2 -a 0 -i 0 -k MAC 
- -t 0.415272300 -s 5 -d -1 -p CTS -e 38 -c 2 -a 0 -i 0 -k MAC
h -t 0.415272300 -s 5 -d -1 -p CTS -e 38 -c 2 -a 0 -i 0 -k MAC
r -t 0.415577000 -s 0 -d -1 -p CTS -e 38 -c 2 -a 0 -i 0 -k MAC
+ -t 0.415587000 -s 0 -d 5 -p tcp -e 1098 -c 2 -a 0 -i 16 -k MAC 
- -t 0.415587000 -s 0 -d 5 -p tcp -e 1098 -c 2 -a 0 -i 16 -k MAC
h -t 0.415587000 -s 0 -d 5 -p tcp -e 1098 -c 2 -a 0 -i 16 -k MAC
r -t 0.424371700 -s 5 -d 5 -p tcp -e 1040 -c 2 -a 0 -i 16 -k MAC
+ -t 0.424381700 -s 5 -d -1 -p ACK -e 38 -c 2 -a 0 -i 0 -k MAC 
- -t 0.424381700 -s 5 -d -1 -p ACK -e 38 -c 2 -a 0 -i 0 -k MAC
h -t 0.424381700 -s 5 -d -1 -p ACK -e 38 -c 2 -a 0 -i 0 -k MAC
+ -t 0.424396700 -s 5 -d 0 -p ack -e 40 -c 2 -a 0 -i 27 -k RTR 
- -t 0.424396700 -s 5 -d 0 -p ack -e 40 -c 2 -a 0 -i 27 -k RTR
h -t 0.424396700 -s 5 -d 0 -p ack -e 40 -c 2 -a 0 -i 27 -k RTR
r -t 0.424686400 -s 0 -d -1 -p ACK -e 38 -c 2 -a 0 -i 0 -k MAC
+ -t 0.424835700 -s 5 -d -1 -p RTS -e 44 -c 2 -a 0 -i 0 -k MAC 
- -t 0.424835700 -s 5 -d -1 -p RTS -e 44 -c 2 -a 0 -i 0 -k MAC
h -t 0.424835700 -s 5 -d -1 -p RTS -e 44 -c 2 -a 0 -i 0 -k MAC
r -t 0.425188400 -s 0 -d -1 -p RTS -e 44 -c 2 -a 0 -i 0 -k MAC
+ -t 0.425198400 -s 0 -d -1 -p CTS -e 38 -c 2 -a 0 -i 0 -k MAC 
- -t 0.425198400 -s 0 -d -1 -p CTS -e 38 -c 2 -a 0 -i 0 -k MAC
h -t 0.425198400 -s 0 -d -1 -p CTS -e 38 -c 2 -a 0 -i 0 -k MAC
r -t 0.425503100 -s 5 -d -1 -p CTS -e 38 -c 2 -a 0 -i 0 -k MAC
+ -t 0.425513100 -s 5 -d 0 -p ack -e 98 -c 2 -a 0 -i 25 -k MAC 
- -t 0.425513100 -s 5 -d 0 -p ack -e 98 -c 2 -a 0 -i 25 -k MAC
h -t 0.425513100 -s 5 -d 0 -p ack -e 98 -c 2 -a 0 -i 25 -k MAC
r -t 0.426297800 -s 0 -d 0 -p ack -e 40 -c 2 -a 0 -i 25 -k MAC
+ -t 0.426307800 -s 0 -d -1 -p ACK -e 38 -c 2 -a 0 -i 0 -k MAC 
- -t 0.426307800 -s 0 -d -1 -p ACK -e 38 -c 2 -a 0 -i 0 -k MAC
h -t 0.426307800 -s 0 -d -1 -p ACK -e 38 -c 2 -a 0 -i 0 -k MAC
+ -t 0.426322800 -s 0 -d 5 -p tcp -e 1040 -c 2 -a 0 -i 28 -k RTR 
- -t 0.426322800 -s 0 -d 5 -p tcp -e 1040 -c 2 -a 0 -i 28 -k RTR
h -t 0.426322800 -s 0 -d 5 -p tcp -e 1040 -c 2 -a 0 -i 28 -k RTR
+ -t 0.426322800 -s 0 -d 5 -p tcp -e 1040 -c 2 -a 0 -i 29 -k RTR 