n -t * -s 0  -x 0 -y 0 -Z 0 -z 30  -v circle -c black
n -t * -s 1  -x 0 -y 0 -Z 0 -z 30  -v circle -c black
V -t * -v 1.0a5 -a 0
W -t * -x 500 -y 500
A -t * -n 1 -p 0 -o 0x7fffffff -c 30 -a 1
A -t * -h 1 -m 1073741823 -s 0
c -t * -i 4 -n brown
c -t * -i 0 -n blue
c -t * -i 5 -n tan
c -t * -i 1 -n red
c -t * -i 6 -n gold
c -t * -i 2 -n chocolate
c -t * -i 7 -n black
c -t * -i 3 -n red
n -t 0.000000 -s 0 -x 100.000000 -y 100.000000 -U 0.000000 -V 0.000000 -T 0.000000
n -t 0.000000 -s 1 -x 200.000000 -y 100.000000 -U 2000.000000 -V 0.000000 -T 0.025000
+ -t 0.300000000 -s 0 -d -1 -p AODV -e 48 -c 2 -a 0 -i 0 -k RTR 
- -t 0.300000000 -s 0 -d -1 -p AODV -e 48 -c 2 -a 0 -i 0 -k RTR
h -t 0.300000000 -s 0 -d -1 -p AODV -e 48 -c 2 -a 0 -i 0 -k RTR
+ -t 0.300575000 -s 0 -d -1 -p AODV -e 106 -c 2 -a 0 -i 0 -k MAC 
- -t 0.300575000 -s 0 -d -1 -p AODV -e 106 -c 2 -a 0 -i 0 -k MAC
h -t 0.300575000 -s 0 -d -1 -p AODV -e 106 -c 2 -a 0 -i 0 -k MAC
r -t 0.301423500 -s 1 -d -1 -p AODV -e 48 -c 2 -a 0 -i 0 -k MAC
r -t 0.301448500 -s 1 -d -1 -p AODV -e 48 -c 2 -a 0 -i 0 -k RTR
+ -t 0.301448500 -s 1 -d 0 -p AODV -e 44 -c 2 -a 0 -i 0 -k RTR 
- -t 0.301448500 -s 1 -d 0 -p AODV -e 44 -c 2 -a 0 -i 0 -k RTR
h -t 0.301448500 -s 1 -d 0 -p AODV -e 44 -c 2 -a 0 -i 0 -k RTR
+ -t 0.301743500 -s 1 -d -1 -p ARP -e 86 -c 2 -a 0 -i 0 -k MAC 
- -t 0.301743500 -s 1 -d -1 -p ARP -e 86 -c 2 -a 0 -i 0 -k MAC
h -t 0.301743500 -s 1 -d -1 -p ARP -e 86 -c 2 -a 0 -i 0 -k MAC
r -t 0.302432000 -s 0 -d -1 -p ARP -e 28 -c 2 -a 0 -i 0 -k MAC
+ -t 0.303087000 -s 0 -d -1 -p RTS -e 44 -c 2 -a 0 -i 0 -k MAC 
- -t 0.303087000 -s 0 -d -1 -p RTS -e 44 -c 2 -a 0 -i 0 -k MAC
h -t 0.303087000 -s 0 -d -1 -p RTS -e 44 -c 2 -a 0 -i 0 -k MAC
r -t 0.303439500 -s 1 -d -1 -p RTS -e 44 -c 2 -a 0 -i 0 -k MAC
+ -t 0.303449500 -s 1 -d -1 -p CTS -e 38 -c 2 -a 0 -i 0 -k MAC 
- -t 0.303449500 -s 1 -d -1 -p CTS -e 38 -c 2 -a 0 -i 0 -k MAC
h -t 0.303449500 -s 1 -d -1 -p CTS -e 38 -c 2 -a 0 -i 0 -k MAC
r -t 0.303754000 -s 0 -d -1 -p CTS -e 38 -c 2 -a 0 -i 0 -k MAC
+ -t 0.303764000 -s 0 -d -1 -p ARP -e 86 -c 2 -a 0 -i 0 -k MAC 
- -t 0.303764000 -s 0 -d -1 -p ARP -e 86 -c 2 -a 0 -i 0 -k MAC
h -t 0.303764000 -s 0 -d -1 -p ARP -e 86 -c 2 -a 0 -i 0 -k MAC
r -t 0.304452500 -s 1 -d -1 -p ARP -e 28 -c 2 -a 0 -i 0 -k MAC
+ -t 0.304462500 -s 1 -d -1 -p ACK -e 38 -c 2 -a 0 -i 0 -k MAC 
- -t 0.304462500 -s 1 -d -1 -p ACK -e 38 -c 2 -a 0 -i 0 -k MAC
h -t 0.304462500 -s 1 -d -1 -p ACK -e 38 -c 2 -a 0 -i 0 -k MAC
r -t 0.304767000 -s 0 -d -1 -p ACK -e 38 -c 2 -a 0 -i 0 -k MAC
+ -t 0.304836500 -s 1 -d -1 -p RTS -e 44 -c 2 -a 0 -i 0 -k MAC 
- -t 0.304836500 -s 1 -d -1 -p RTS -e 44 -c 2 -a 0 -i 0 -k MAC
h -t 0.304836500 -s 1 -d -1 -p RTS -e 44 -c 2 -a 0 -i 0 -k MAC
r -t 0.305189000 -s 0 -d -1 -p RTS -e 44 -c 2 -a 0 -i 0 -k MAC
+ -t 0.305199000 -s 0 -d -1 -p CTS -e 38 -c 2 -a 0 -i 0 -k MAC 
- -t 0.305199000 -s 0 -d -1 -p CTS -e 38 -c 2 -a 0 -i 0 -k MAC
h -t 0.305199000 -s 0 -d -1 -p CTS -e 38 -c 2 -a 0 -i 0 -k MAC
r -t 0.305503500 -s 1 -d -1 -p CTS -e 38 -c 2 -a 0 -i 0 -k MAC
+ -t 0.305513500 -s 1 -d 0 -p AODV -e 102 -c 2 -a 0 -i 0 -k MAC 
- -t 0.305513500 -s 1 -d 0 -p AODV -e 102 -c 2 -a 0 -i 0 -k MAC
h -t 0.305513500 -s 1 -d 0 -p AODV -e 102 -c 2 -a 0 -i 0 -k MAC
r -t 0.306330000 -s 0 -d 0 -p AODV -e 44 -c 2 -a 0 -i 0 -k MAC
+ -t 0.306340000 -s 0 -d -1 -p ACK -e 38 -c 2 -a 0 -i 0 -k MAC 
- -t 0.306340000 -s 0 -d -1 -p ACK -e 38 -c 2 -a 0 -i 0 -k MAC
h -t 0.306340000 -s 0 -d -1 -p ACK -e 38 -c 2 -a 0 -i 0 -k MAC
+ -t 0.306355000 -s 0 -d 1 -p tcp -e 40 -c 2 -a 0 -i 0 -k RTR 
- -t 0.306355000 -s 0 -d 1 -p tcp -e 40 -c 2 -a 0 -i 0 -k RTR
h -t 0.306355000 -s 0 -d 1 -p tcp -e 40 -c 2 -a 0 -i 0 -k RTR
r -t 0.306644500 -s 1 -d -1 -p ACK -e 38 -c 2 -a 0 -i 0 -k MAC
+ -t 0.306794000 -s 0 -d -1 -p RTS -e 44 -c 2 -a 0 -i 0 -k MAC 
- -t 0.306794000 -s 0 -d -1 -p RTS -e 44 -c 2 -a 0 -i 0 -k MAC
h -t 0.306794000 -s 0 -d -1 -p RTS -e 44 -c 2 -a 0 -i 0 -k MAC
r -t 0.307146500 -s 1 -d -1 -p RTS -e 44 -c 2 -a 0 -i 0 -k MAC
+ -t 0.307156500 -s 1 -d -1 -p CTS -e 38 -c 2 -a 0 -i 0 -k MAC 
- -t 0.307156500 -s 1 -d -1 -p CTS -e 38 -c 2 -a 0 -i 0 -k MAC
h -t 0.307156500 -s 1 -d -1 -p CTS -e 38 -c 2 -a 0 -i 0 -k MAC
r -t 0.307461000 -s 0 -d -1 -p CTS -e 38 -c 2 -a 0 -i 0 -k MAC
+ -t 0.307471000 -s 0 -d 1 -p tcp -e 98 -c 2 -a 0 -i 0 -k MAC 
- -t 0.307471000 -s 0 -d 1 -p tcp -e 98 -c 2 -a 0 -i 0 -k MAC
h -t 0.307471000 -s 0 -d 1 -p tcp -e 98 -c 2 -a 0 -i 0 -k MAC
r -t 0.308255500 -s 1 -d 1 -p tcp -e 40 -c 2 -a 0 -i 0 -k MAC
+ -t 0.308265500 -s 1 -d -1 -p ACK -e 38 -c 2 -a 0 -i 0 -k MAC 
- -t 0.308265500 -s 1 -d -1 -p ACK -e 38 -c 2 -a 0 -i 0 -k MAC
h -t 0.308265500 -s 1 -d -1 -p ACK -e 38 -c 2 -a 0 -i 0 -k MAC
+ -t 0.308280500 -s 1 -d 0 -p ack -e 40 -c 2 -a 0 -i 1 -k RTR 
- -t 0.308280500 -s 1 -d 0 -p ack -e 40 -c 2 -a 0 -i 1 -k RTR
h -t 0.308280500 -s 1 -d 0 -p ack -e 40 -c 2 -a 0 -i 1 -k RTR
r -t 0.308570000 -s 0 -d -1 -p ACK -e 38 -c 2 -a 0 -i 0 -k MAC
+ -t 0.308779500 -s 1 -d -1 -p RTS -e 44 -c 2 -a 0 -i 0 -k MAC 
- -t 0.308779500 -s 1 -d -1 -p RTS -e 44 -c 2 -a 0 -i 0 -k MAC
h -t 0.308779500 -s 1 -d -1 -p RTS -e 44 -c 2 -a 0 -i 0 -k MAC
r -t 0.309132000 -s 0 -d -1 -p RTS -e 44 -c 2 -a 0 -i 0 -k MAC
+ -t 0.309142000 -s 0 -d -1 -p CTS -e 38 -c 2 -a 0 -i 0 -k MAC 
- -t 0.309142000 -s 0 -d -1 -p CTS -e 38 -c 2 -a 0 -i 0 -k MAC
h -t 0.309142000 -s 0 -d -1 -p CTS -e 38 -c 2 -a 0 -i 0 -k MAC
r -t 0.309446500 -s 1 -d -1 -p CTS -e 38 -c 2 -a 0 -i 0 -k MAC
+ -t 0.309456500 -s 1 -d 0 -p ack -e 98 -c 2 -a 0 -i 1 -k MAC 
- -t 0.309456500 -s 1 -d 0 -p ack -e 98 -c 2 -a 0 -i 1 -k MAC
h -t 0.309456500 -s 1 -d 0 -p ack -e 98 -c 2 -a 0 -i 1 -k MAC
r -t 0.310241000 -s 0 -d 0 -p ack -e 40 -c 2 -a 0 -i 1 -k MAC
+ -t 0.310251000 -s 0 -d -1 -p ACK -e 38 -c 2 -a 0 -i 0 -k MAC 
- -t 0.310251000 -s 0 -d -1 -p ACK -e 38 -c 2 -a 0 -i 0 -k MAC
h -t 0.310251000 -s 0 -d -1 -p ACK -e 38 -c 2 -a 0 -i 0 -k MAC
+ -t 0.310266000 -s 0 -d 1 -p tcp -e 1040 -c 2 -a 0 -i 2 -k RTR 
- -t 0.310266000 -s 0 -d 1 -p tcp -e 1040 -c 2 -a 0 -i 2 -k RTR
h -t 0.310266000 -s 0 -d 1 -p tcp -e 1040 -c 2 -a 0 -i 2 -k RTR
+ -t 0.310266000 -s 0 -d 1 -p tcp -e 1040 -c 2 -a 0 -i 3 -k RTR 
- -t 0.310266000 -s 0 -d 1 -p tcp -e 1040 -c 2 -a 0 -i 3 -k RTR
h -t 0.310266000 -s 0 -d 1 -p tcp -e 1040 -c 2 -a 0 -i 3 -k RTR
r -t 0.310555500 -s 1 -d -1 -p ACK -e 38 -c 2 -a 0 -i 0 -k MAC
+ -t 0.310645000 -s 0 -d -1 -p RTS -e 44 -c 2 -a 0 -i 0 -k MAC 
- -t 0.310645000 -s 0 -d -1 -p RTS -e 44 -c 2 -a 0 -i 0 -k MAC
h -t 0.310645000 -s 0 -d -1 -p RTS -e 44 -c 2 -a 0 -i 0 -k MAC
r -t 0.310997500 -s 1 -d -1 -p RTS -e 44 -c 2 -a 0 -i 0 -k MAC
+ -t 0.311007500 -s 1 -d -1 -p CTS -e 38 -c 2 -a 0 -i 0 -k MAC 
- -t 0.311007500 -s 1 -d -1 -p CTS -e 38 -c 2 -a 0 -i 0 -k MAC
h -t 0.311007500 -s 1 -d -1 -p CTS -e 38 -c 2 -a 0 -i 0 -k MAC
r -t 0.311312000 -s 0 -d -1 -p CTS -e 38 -c 2 -a 0 -i 0 -k MAC
+ -t 0.311322000 -s 0 -d 1 -p tcp -e 1098 -c 2 -a 0 -i 2 -k MAC 
- -t 0.311322000 -s 0 -d 1 -p tcp -e 1098 -c 2 -a 0 -i 2 -k MAC
h -t 0.311322000 -s 0 -d 1 -p tcp -e 1098 -c 2 -a 0 -i 2 -k MAC
r -t 0.320106500 -s 1 -d 1 -p tcp -e 1040 -c 2 -a 0 -i 2 -k MAC
+ -t 0.320116500 -s 1 -d -1 -p ACK -e 38 -c 2 -a 0 -i 0 -k MAC 
- -t 0.320116500 -s 1 -d -1 -p ACK -e 38 -c 2 -a 0 -i 0 -k MAC
h -t 0.320116500 -s 1 -d -1 -p ACK -e 38 -c 2 -a 0 -i 0 -k MAC
+ -t 0.320131500 -s 1 -d 0 -p ack -e 40 -c 2 -a 0 -i 4 -k RTR 
- -t 0.320131500 -s 1 -d 0 -p ack -e 40 -c 2 -a 0 -i 4 -k RTR
h -t 0.320131500 -s 1 -d 0 -p ack -e 40 -c 2 -a 0 -i 4 -k RTR
r -t 0.320421000 -s 0 -d -1 -p ACK -e 38 -c 2 -a 0 -i 0 -k MAC
+ -t 0.320891000 -s 0 -d -1 -p RTS -e 44 -c 2 -a 0 -i 0 -k MAC 
- -t 0.320891000 -s 0 -d -1 -p RTS -e 44 -c 2 -a 0 -i 0 -k MAC
h -t 0.320891000 -s 0 -d -1 -p RTS -e 44 -c 2 -a 0 -i 0 -k MAC
r -t 0.321243500 -s 1 -d -1 -p RTS -e 44 -c 2 -a 0 -i 0 -k MAC
+ -t 0.321253500 -s 1 -d -1 -p CTS -e 38 -c 2 -a 0 -i 0 -k MAC 
- -t 0.321253500 -s 1 -d -1 -p CTS -e 38 -c 2 -a 0 -i 0 -k MAC
h -t 0.321253500 -s 1 -d -1 -p CTS -e 38 -c 2 -a 0 -i 0 -k MAC
r -t 0.321558000 -s 0 -d -1 -p CTS -e 38 -c 2 -a 0 -i 0 -k MAC
+ -t 0.321568000 -s 0 -d 1 -p tcp -e 1098 -c 2 -a 0 -i 3 -k MAC 
- -t 0.321568000 -s 0 -d 1 -p tcp -e 1098 -c 2 -a 0 -i 3 -k MAC
h -t 0.321568000 -s 0 -d 1 -p tcp -e 1098 -c 2 -a 0 -i 3 -k MAC
r -t 0.330352500 -s 1 -d 1 -p tcp -e 1040 -c 2 -a 0 -i 3 -k MAC
+ -t 0.330362500 -s 1 -d -1 -p ACK -e 38 -c 2 -a 0 -i 0 -k MAC 
- -t 0.330362500 -s 1 -d -1 -p ACK -e 38 -c 2 -a 0 -i 0 -k MAC
h -t 0.330362500 -s 1 -d -1 -p ACK -e 38 -c 2 -a 0 -i 0 -k MAC
+ -t 0.330377500 -s 1 -d 0 -p ack -e 40 -c 2 -a 0 -i 5 -k RTR 
- -t 0.330377500 -s 1 -d 0 -p ack -e 40 -c 2 -a 0 -i 5 -k RTR
h -t 0.330377500 -s 1 -d 0 -p ack -e 40 -c 2 -a 0 -i 5 -k RTR
r -t 0.330667000 -s 0 -d -1 -p ACK -e 38 -c 2 -a 0 -i 0 -k MAC
+ -t 0.330876500 -s 1 -d -1 -p RTS -e 44 -c 2 -a 0 -i 0 -k MAC 
- -t 0.330876500 -s 1 -d -1 -p RTS -e 44 -c 2 -a 0 -i 0 -k MAC
h -t 0.330876500 -s 1 -d -1 -p RTS -e 44 -c 2 -a 0 -i 0 -k MAC
r -t 0.331229000 -s 0 -d -1 -p RTS -e 44 -c 2 -a 0 -i 0 -k MAC
+ -t 0.331239000 -s 0 -d -1 -p CTS -e 38 -c 2 -a 0 -i 0 -k MAC 
- -t 0.331239000 -s 0 -d -1 -p CTS -e 38 -c 2 -a 0 -i 0 -k MAC
h -t 0.331239000 -s 0 -d -1 -p CTS -e 38 -c 2 -a 0 -i 0 -k MAC
r -t 0.331543500 -s 1 -d -1 -p CTS -e 38 -c 2 -a 0 -i 0 -k MAC
+ -t 0.331553500 -s 1 -d 0 -p ack -e 98 -c 2 -a 0 -i 4 -k MAC 
- -t 0.331553500 -s 1 -d 0 -p ack -e 98 -c 2 -a 0 -i 4 -k MAC
h -t 0.331553500 -s 1 -d 0 -p ack -e 98 -c 2 -a 0 -i 4 -k MAC
r -t 0.332338000 -s 0 -d 0 -p ack -e 40 -c 2 -a 0 -i 4 -k MAC
+ -t 0.332348000 -s 0 -d -1 -p ACK -e 38 -c 2 -a 0 -i 0 -k MAC 
- -t 0.332348000 -s 0 -d -1 -p ACK -e 38 -c 2 -a 0 -i 0 -k MAC
h -t 0.332348000 -s 0 -d -1 -p ACK -e 38 -c 2 -a 0 -i 0 -k MAC
+ -t 0.332363000 -s 0 -d 1 -p tcp -e 1040 -c 2 -a 0 -i 6 -k RTR 
- -t 0.332363000 -s 0 -d 1 -p tcp -e 1040 -c 2 -a 0 -i 6 -k RTR
h -t 0.332363000 -s 0 -d 1 -p tcp -e 1040 -c 2 -a 0 -i 6 -k RTR
+ -t 0.332363000 -s 0 -d 1 -p tcp -e 1040 -c 2 -a 0 -i 7 -k RTR 
- -t 0.332363000 -s 0 -d 1 -p tcp -e 1040 -c 2 -a 0 -i 7 -k RTR
h -t 0.332363000 -s 0 -d 1 -p tcp -e 1040 -c 2 -a 0 -i 7 -k RTR
r -t 0.332652500 -s 1 -d -1 -p ACK -e 38 -c 2 -a 0 -i 0 -k MAC
+ -t 0.332802000 -s 0 -d -1 -p RTS -e 44 -c 2 -a 0 -i 0 -k MAC 
- -t 0.332802000 -s 0 -d -1 -p RTS -e 44 -c 2 -a 0 -i 0 -k MAC
h -t 0.332802000 -s 0 -d -1 -p RTS -e 44 -c 2 -a 0 -i 0 -k MAC
r -t 0.333154500 -s 1 -d -1 -p RTS -e 44 -c 2 -a 0 -i 0 -k MAC
+ -t 0.333164500 -s 1 -d -1 -p CTS -e 38 -c 2 -a 0 -i 0 -k MAC 
- -t 0.333164500 -s 1 -d -1 -p CTS -e 38 -c 2 -a 0 -i 0 -k MAC
h -t 0.333164500 -s 1 -d -1 -p CTS -e 38 -c 2 -a 0 -i 0 -k MAC
r -t 0.333469000 -s 0 -d -1 -p CTS -e 38 -c 2 -a 0 -i 0 -k MAC
+ -t 0.333479000 -s 0 -d 1 -p tcp -e 1098 -c 2 -a 0 -i 6 -k MAC 
- -t 0.333479000 -s 0 -d 1 -p tcp -e 1098 -c 2 -a 0 -i 6 -k MAC
h -t 0.333479000 -s 0 -d 1 -p tcp -e 1098 -c 2 -a 0 -i 6 -k MAC
r -t 0.342263500 -s 1 -d 1 -p tcp -e 1040 -c 2 -a 0 -i 6 -k MAC
+ -t 0.342273500 -s 1 -d -1 -p ACK -e 38 -c 2 -a 0 -i 0 -k MAC 
- -t 0.342273500 -s 1 -d -1 -p ACK -e 38 -c 2 -a 0 -i 0 -k MAC
h -t 0.342273500 -s 1 -d -1 -p ACK -e 38 -c 2 -a 0 -i 0 -k MAC
+ -t 0.342288500 -s 1 -d 0 -p ack -e 40 -c 2 -a 0 -i 8 -k RTR 
- -t 0.342288500 -s 1 -d 0 -p ack -e 40 -c 2 -a 0 -i 8 -k RTR
h -t 0.342288500 -s 1 -d 0 -p ack -e 40 -c 2 -a 0 -i 8 -k RTR
r -t 0.342578000 -s 0 -d -1 -p ACK -e 38 -c 2 -a 0 -i 0 -k MAC
+ -t 0.342788000 -s 0 -d -1 -p RTS -e 44 -c 2 -a 0 -i 0 -k MAC 
- -t 0.342788000 -s 0 -d -1 -p RTS -e 44 -c 2 -a 0 -i 0 -k MAC
h -t 0.342788000 -s 0 -d -1 -p RTS -e 44 -c 2 -a 0 -i 0 -k MAC
r -t 0.343140500 -s 1 -d -1 -p RTS -e 44 -c 2 -a 0 -i 0 -k MAC
+ -t 0.343150500 -s 1 -d -1 -p CTS -e 38 -c 2 -a 0 -i 0 -k MAC 
- -t 0.343150500 -s 1 -d -1 -p CTS -e 38 -c 2 -a 0 -i 0 -k MAC
h -t 0.343150500 -s 1 -d -1 -p CTS -e 38 -c 2 -a 0 -i 0 -k MAC
r -t 0.343455000 -s 0 -d -1 -p CTS -e 38 -c 2 -a 0 -i 0 -k MAC
+ -t 0.343465000 -s 0 -d 1 -p tcp -e 1098 -c 2 -a 0 -i 7 -k MAC 
- -t 0.343465000 -s 0 -d 1 -p tcp -e 1098 -c 2 -a 0 -i 7 -k MAC
h -t 0.343465000 -s 0 -d 1 -p tcp -e 1098 -c 2 -a 0 -i 7 -k MAC
r -t 0.352249500 -s 1 -d 1 -p tcp -e 1040 -c 2 -a 0 -i 7 -k MAC
+ -t 0.352259500 -s 1 -d -1 -p ACK -e 38 -c 2 -a 0 -i 0 -k MAC 
- -t 0.352259500 -s 1 -d -1 -p ACK -e 38 -c 2 -a 0 -i 0 -k MAC
h -t 0.352259500 -s 1 -d -1 -p ACK -e 38 -c 2 -a 0 -i 0 -k MAC
+ -t 0.352274500 -s 1 -d 0 -p ack -e 40 -c 2 -a 0 -i 9 -k RTR 
- -t 0.352274500 -s 1 -d 0 -p ack -e 40 -c 2 -a 0 -i 9 -k RTR
h -t 0.352274500 -s 1 -d 0 -p ack -e 40 -c 2 -a 0 -i 9 -k RTR
r -t 0.352564000 -s 0 -d -1 -p ACK -e 38 -c 2 -a 0 -i 0 -k MAC
+ -t 0.352953500 -s 1 -d -1 -p RTS -e 44 -c 2 -a 0 -i 0 -k MAC 
- -t 0.352953500 -s 1 -d -1 -p RTS -e 44 -c 2 -a 0 -i 0 -k MAC
h -t 0.352953500 -s 1 -d -1 -p RTS -e 44 -c 2 -a 0 -i 0 -k MAC
r -t 0.353306000 -s 0 -d -1 -p RTS -e 44 -c 2 -a 0 -i 0 -k MAC
+ -t 0.353316000 -s 0 -d -1 -p CTS -e 38 -c 2 -a 0 -i 0 -k MAC 
- -t 0.353316000 -s 0 -d -1 -p CTS -e 38 -c 2 -a 0 -i 0 -k MAC
h -t 0.353316000 -s 0 -d -1 -p CTS -e 38 -c 2 -a 0 -i 0 -k MAC
r -t 0.353620500 -s 1 -d -1 -p CTS -e 38 -c 2 -a 0 -i 0 -k MAC
+ -t 0.353630500 -s 1 -d 0 -p ack -e 98 -c 2 -a 0 -i 5 -k MAC 
- -t 0.353630500 -s 1 -d 0 -p ack -e 98 -c 2 -a 0 -i 5 -k MAC
h -t 0.353630500 -s 1 -d 0 -p ack -e 98 -c 2 -a 0 -i 5 -k MAC
r -t 0.354415000 -s 0 -d 0 -p ack -e 40 -c 2 -a 0 -i 5 -k MAC
+ -t 0.354425000 -s 0 -d -1 -p ACK -e 38 -c 2 -a 0 -i 0 -k MAC 
- -t 0.354425000 -s 0 -d -1 -p ACK -e 38 -c 2 -a 0 -i 0 -k MAC
h -t 0.354425000 -s 0 -d -1 -p ACK -e 38 -c 2 -a 0 -i 0 -k MAC
+ -t 0.354440000 -s 0 -d 1 -p tcp -e 1040 -c 2 -a 0 -i 10 -k RTR 
- -t 0.354440000 -s 0 -d 1 -p tcp -e 1040 -c 2 -a 0 -i 10 -k RTR
h -t 0.354440000 -s 0 -d 1 -p tcp -e 1040 -c 2 -a 0 -i 10 -k RTR
+ -t 0.354440000 -s 0 -d 1 -p tcp -e 1040 -c 2 -a 0 -i 11 -k RTR 
- -t 0.354440000 -s 0 -d 1 -p tcp -e 1040 -c 2 -a 0 -i 11 -k RTR
h -t 0.354440000 -s 0 -d 1 -p tcp -e 1040 -c 2 -a 0 -i 11 -k RTR
r -t 0.354729500 -s 1 -d -1 -p ACK -e 38 -c 2 -a 0 -i 0 -k MAC
+ -t 0.354979000 -s 0 -d -1 -p RTS -e 44 -c 2 -a 0 -i 0 -k MAC 
- -t 0.354979000 -s 0 -d -1 -p RTS -e 44 -c 2 -a 0 -i 0 -k MAC
h -t 0.354979000 -s 0 -d -1 -p RTS -e 44 -c 2 -a 0 -i 0 -k MAC
r -t 0.355331500 -s 1 -d -1 -p RTS -e 44 -c 2 -a 0 -i 0 -k MAC
+ -t 0.355341500 -s 1 -d -1 -p CTS -e 38 -c 2 -a 0 -i 0 -k MAC 
- -t 0.355341500 -s 1 -d -1 -p CTS -e 38 -c 2 -a 0 -i 0 -k MAC
h -t 0.355341500 -s 1 -d -1 -p CTS -e 38 -c 2 -a 0 -i 0 -k MAC
r -t 0.355646000 -s 0 -d -1 -p CTS -e 38 -c 2 -a 0 -i 0 -k MAC
+ -t 0.355656000 -s 0 -d 1 -p tcp -e 1098 -c 2 -a 0 -i 10 -k MAC 
- -t 0.355656000 -s 0 -d 1 -p tcp -e 1098 -c 2 -a 0 -i 10 -k MAC
h -t 0.355656000 -s 0 -d 1 -p tcp -e 1098 -c 2 -a 0 -i 10 -k MAC
r -t 0.364440500 -s 1 -d 1 -p tcp -e 1040 -c 2 -a 0 -i 10 -k MAC
+ -t 0.364450500 -s 1 -d -1 -p ACK -e 38 -c 2 -a 0 -i 0 -k MAC 
- -t 0.364450500 -s 1 -d -1 -p ACK -e 38 -c 2 -a 0 -i 0 -k MAC
h -t 0.364450500 -s 1 -d -1 -p ACK -e 38 -c 2 -a 0 -i 0 -k MAC
+ -t 0.364465500 -s 1 -d 0 -p ack -e 40 -c 2 -a 0 -i 12 -k RTR 
- -t 0.364465500 -s 1 -d 0 -p ack -e 40 -c 2 -a 0 -i 12 -k RTR
h -t 0.364465500 -s 1 -d 0 -p ack -e 40 -c 2 -a 0 -i 12 -k RTR
r -t 0.364755000 -s 0 -d -1 -p ACK -e 38 -c 2 -a 0 -i 0 -k MAC
+ -t 0.365064500 -s 1 -d -1 -p RTS -e 44 -c 2 -a 0 -i 0 -k MAC 
- -t 0.365064500 -s 1 -d -1 -p RTS -e 44 -c 2 -a 0 -i 0 -k MAC
h -t 0.365064500 -s 1 -d -1 -p RTS -e 44 -c 2 -a 0 -i 0 -k MAC
r -t 0.365417000 -s 0 -d -1 -p RTS -e 44 -c 2 -a 0 -i 0 -k MAC
+ -t 0.365427000 -s 0 -d -1 -p CTS -e 38 -c 2 -a 0 -i 0 -k MAC 
- -t 0.365427000 -s 0 -d -1 -p CTS -e 38 -c 2 -a 0 -i 0 -k MAC
h -t 0.365427000 -s 0 -d -1 -p CTS -e 38 -c 2 -a 0 -i 0 -k MAC
r -t 0.365731500 -s 1 -d -1 -p CTS -e 38 -c 2 -a 0 -i 0 -k MAC
+ -t 0.365741500 -s 1 -d 0 -p ack -e 98 -c 2 -a 0 -i 8 -k MAC 
- -t 0.365741500 -s 1 -d 0 -p ack -e 98 -c 2 -a 0 -i 8 -k MAC
h -t 0.365741500 -s 1 -d 0 -p ack -e 98 -c 2 -a 0 -i 8 -k MAC
r -t 0.366526000 -s 0 -d 0 -p ack -e 40 -c 2 -a 0 -i 8 -k MAC
+ -t 0.366536000 -s 0 -d -1 -p ACK -e 38 -c 2 -a 0 -i 0 -k MAC 
- -t 0.366536000 -s 0 -d -1 -p ACK -e 38 -c 2 -a 0 -i 0 -k MAC
h -t 0.366536000 -s 0 -d -1 -p ACK -e 38 -c 2 -a 0 -i 0 -k MAC
+ -t 0.366551000 -s 0 -d 1 -p tcp -e 1040 -c 2 -a 0 -i 13 -k RTR 
- -t 0.366551000 -s 0 -d 1 -p tcp -e 1040 -c 2 -a 0 -i 13 -k RTR
h -t 0.366551000 -s 0 -d 1 -p tcp -e 1040 -c 2 -a 0 -i 13 -k RTR
+ -t 0.366551000 -s 0 -d 1 -p tcp -e 1040 -c 2 -a 0 -i 14 -k RTR 
- -t 0.366551000 -s 0 -d 1 -p tcp -e 1040 -c 2 -a 0 -i 14 -k RTR
h -t 0.366551000 -s 0 -d 1 -p tcp -e 1040 -c 2 -a 0 -i 14 -k RTR
r -t 0.366840500 -s 1 -d -1 -p ACK -e 38 -c 2 -a 0 -i 0 -k MAC
+ -t 0.367130500 -s 1 -d -1 -p RTS -e 44 -c 2 -a 0 -i 0 -k MAC 
- -t 0.367130500 -s 1 -d -1 -p RTS -e 44 -c 2 -a 0 -i 0 -k MAC
h -t 0.367130500 -s 1 -d -1 -p RTS -e 44 -c 2 -a 0 -i 0 -k MAC
r -t 0.367483000 -s 0 -d -1 -p RTS -e 44 -c 2 -a 0 -i 0 -k MAC
+ -t 0.367493000 -s 0 -d -1 -p CTS -e 38 -c 2 -a 0 -i 0 -k MAC 
- -t 0.367493000 -s 0 -d -1 -p CTS -e 38 -c 2 -a 0 -i 0 -k MAC
h -t 0.367493000 -s 0 -d -1 -p CTS -e 38 -c 2 -a 0 -i 0 -k MAC
r -t 0.367797500 -s 1 -d -1 -p CTS -e 38 -c 2 -a 0 -i 0 -k MAC
+ -t 0.367807500 -s 1 -d 0 -p ack -e 98 -c 2 -a 0 -i 9 -k MAC 
- -t 0.367807500 -s 1 -d 0 -p ack -e 98 -c 2 -a 0 -i 9 -k MAC
h -t 0.367807500 -s 1 -d 0 -p ack -e 98 -c 2 -a 0 -i 9 -k MAC
r -t 0.368592000 -s 0 -d 0 -p ack -e 40 -c 2 -a 0 -i 9 -k MAC
+ -t 0.368602000 -s 0 -d -1 -p ACK -e 38 -c 2 -a 0 -i 0 -k MAC 
- -t 0.368602000 -s 0 -d -1 -p ACK -e 38 -c 2 -a 0 -i 0 -k MAC
h -t 0.368602000 -s 0 -d -1 -p ACK -e 38 -c 2 -a 0 -i 0 -k MAC
+ -t 0.368617000 -s 0 -d 1 -p tcp -e 1040 -c 2 -a 0 -i 15 -k RTR 
- -t 0.368617000 -s 0 -d 1 -p tcp -e 1040 -c 2 -a 0 -i 15 -k RTR
h -t 0.368617000 -s 0 -d 1 -p tcp -e 1040 -c 2 -a 0 -i 15 -k RTR
+ -t 0.368617000 -s 0 -d 1 -p tcp -e 1040 -c 2 -a 0 -i 16 -k RTR 
- -t 0.368617000 -s 0 -d 1 -p tcp -e 1040 -c 2 -a 0 -i 16 -k RTR
h -t 0.368617000 -s 0 -d 1 -p tcp -e 1040 -c 2 -a 0 -i 16 -k RTR
r -t 0.368906500 -s 1 -d -1 -p ACK -e 38 -c 2 -a 0 -i 0 -k MAC
+ -t 0.368956500 -s 1 -d -1 -p RTS -e 44 -c 2 -a 0 -i 0 -k MAC 
- -t 0.368956500 -s 1 -d -1 -p RTS -e 44 -c 2 -a 0 -i 0 -k MAC
h -t 0.368956500 -s 1 -d -1 -p RTS -e 44 -c 2 -a 0 -i 0 -k MAC
r -t 0.369309000 -s 0 -d -1 -p RTS -e 44 -c 2 -a 0 -i 0 -k MAC
+ -t 0.369319000 -s 0 -d -1 -p CTS -e 38 -c 2 -a 0 -i 0 -k MAC 
- -t 0.369319000 -s 0 -d -1 -p CTS -e 38 -c 2 -a 0 -i 0 -k MAC
h -t 0.369319000 -s 0 -d -1 -p CTS -e 38 -c 2 -a 0 -i 0 -k MAC
r -t 0.369623500 -s 1 -d -1 -p CTS -e 38 -c 2 -a 0 -i 0 -k MAC
+ -t 0.369633500 -s 1 -d 0 -p ack -e 98 -c 2 -a 0 -i 12 -k MAC 
- -t 0.369633500 -s 1 -d 0 -p ack -e 98 -c 2 -a 0 -i 12 -k MAC
h -t 0.369633500 -s 1 -d 0 -p ack -e 98 -c 2 -a 0 -i 12 -k MAC
r -t 0.370418000 -s 0 -d 0 -p ack -e 40 -c 2 -a 0 -i 12 -k MAC
+ -t 0.370428000 -s 0 -d -1 -p ACK -e 38 -c 2 -a 0 -i 0 -k MAC 
- -t 0.370428000 -s 0 -d -1 -p ACK -e 38 -c 2 -a 0 -i 0 -k MAC
h -t 0.370428000 -s 0 -d -1 -p ACK -e 38 -c 2 -a 0 -i 0 -k MAC
+ -t 0.370443000 -s 0 -d 1 -p tcp -e 1040 -c 2 -a 0 -i 17 -k RTR 
- -t 0.370443000 -s 0 -d 1 -p tcp -e 1040 -c 2 -a 0 -i 17 -k RTR
h -t 0.370443000 -s 0 -d 1 -p tcp -e 1040 -c 2 -a 0 -i 17 -k RTR
+ -t 0.370443000 -s 0 -d 1 -p tcp -e 1040 -c 2 -a 0 -i 18 -k RTR 
- -t 0.370443000 -s 0 -d 1 -p tcp -e 1040 -c 2 -a 0 -i 18 -k RTR
h -t 0.370443000 -s 0 -d 1 -p tcp -e 1040 -c 2 -a 0 -i 18 -k RTR
r -t 0.370732500 -s 1 -d -1 -p ACK -e 38 -c 2 -a 0 -i 0 -k MAC
+ -t 0.370802000 -s 0 -d -1 -p RTS -e 44 -c 2 -a 0 -i 0 -k MAC 
- -t 0.370802000 -s 0 -d -1 -p RTS -e 44 -c 2 -a 0 -i 0 -k MAC
h -t 0.370802000 -s 0 -d -1 -p RTS -e 44 -c 2 -a 0 -i 0 -k MAC
r -t 0.371154500 -s 1 -d -1 -p RTS -e 44 -c 2 -a 0 -i 0 -k MAC
+ -t 0.371164500 -s 1 -d -1 -p CTS -e 38 -c 2 -a 0 -i 0 -k MAC 
- -t 0.371164500 -s 1 -d -1 -p CTS -e 38 -c 2 -a 0 -i 0 -k MAC
h -t 0.371164500 -s 1 -d -1 -p CTS -e 38 -c 2 -a 0 -i 0 -k MAC
r -t 0.371469000 -s 0 -d -1 -p CTS -e 38 -c 2 -a 0 -i 0 -k MAC
+ -t 0.371479000 -s 0 -d 1 -p tcp -e 1098 -c 2 -a 0 -i 11 -k MAC 
- -t 0.371479000 -s 0 -d 1 -p tcp -e 1098 -c 2 -a 0 -i 11 -k MAC
h -t 0.371479000 -s 0 -d 1 -p tcp -e 1098 -c 2 -a 0 -i 11 -k MAC
r -t 0.380263500 -s 1 -d 1 -p tcp -e 1040 -c 2 -a 0 -i 11 -k MAC
+ -t 0.380273500 -s 1 -d -1 -p ACK -e 38 -c 2 -a 0 -i 0 -k MAC 
- -t 0.380273500 -s 1 -d -1 -p ACK -e 38 -c 2 -a 0 -i 0 -k MAC
h -t 0.380273500 -s 1 -d -1 -p ACK -e 38 -c 2 -a 0 -i 0 -k MAC
+ -t 0.380288500 -s 1 -d 0 -p ack -e 40 -c 2 -a 0 -i 19 -k RTR 
- -t 0.380288500 -s 1 -d 0 -p ack -e 40 -c 2 -a 0 -i 19 -k RTR
h -t 0.380288500 -s 1 -d 0 -p ack -e 40 -c 2 -a 0 -i 19 -k RTR
r -t 0.380578000 -s 0 -d -1 -p ACK -e 38 -c 2 -a 0 -i 0 -k MAC
+ -t 0.380747500 -s 1 -d -1 -p RTS -e 44 -c 2 -a 0 -i 0 -k MAC 
- -t 0.380747500 -s 1 -d -1 -p RTS -e 44 -c 2 -a 0 -i 0 -k MAC
h -t 0.380747500 -s 1 -d -1 -p RTS -e 44 -c 2 -a 0 -i 0 -k MAC
r -t 0.381100000 -s 0 -d -1 -p RTS -e 44 -c 2 -a 0 -i 0 -k MAC
+ -t 0.381110000 -s 0 -d -1 -p CTS -e 38 -c 2 -a 0 -i 0 -k MAC 
- -t 0.381110000 -s 0 -d -1 -p CTS -e 38 -c 2 -a 0 -i 0 -k MAC
h -t 0.381110000 -s 0 -d -1 -p CTS -e 38 -c 2 -a 0 -i 0 -k MAC
r -t 0.381414500 -s 1 -d -1 -p CTS -e 38 -c 2 -a 0 -i 0 -k MAC
+ -t 0.381424500 -s 1 -d 0 -p ack -e 98 -c 2 -a 0 -i 19 -k MAC 
- -t 0.381424500 -s 1 -d 0 -p ack -e 98 -c 2 -a 0 -i 19 -k MAC
h -t 0.381424500 -s 1 -d 0 -p ack -e 98 -c 2 -a 0 -i 19 -k MAC
r -t 0.382209000 -s 0 -d 0 -p ack -e 40 -c 2 -a 0 -i 19 -k MAC
+ -t 0.382219000 -s 0 -d -1 -p ACK -e 38 -c 2 -a 0 -i 0 -k MAC 
- -t 0.382219000 -s 0 -d -1 -p ACK -e 38 -c 2 -a 0 -i 0 -k MAC
h -t 0.382219000 -s 0 -d -1 -p ACK -e 38 -c 2 -a 0 -i 0 -k MAC
+ -t 0.382234000 -s 0 -d 1 -p tcp -e 1040 -c 2 -a 0 -i 20 -k RTR 
- -t 0.382234000 -s 0 -d 1 -p tcp -e 1040 -c 2 -a 0 -i 20 -k RTR
h -t 0.382234000 -s 0 -d 1 -p tcp -e 1040 -c 2 -a 0 -i 20 -k RTR
+ -t 0.382234000 -s 0 -d 1 -p tcp -e 1040 -c 2 -a 0 -i 21 -k RTR 
- -t 0.382234000 -s 0 -d 1 -p tcp -e 1040 -c 2 -a 0 -i 21 -k RTR
h -t 0.382234000 -s 0 -d 1 -p tcp -e 1040 -c 2 -a 0 -i 21 -k RTR
r -t 0.382523500 -s 1 -d -1 -p ACK -e 38 -c 2 -a 0 -i 0 -k MAC
+ -t 0.382993000 -s 0 -d -1 -p RTS -e 44 -c 2 -a 0 -i 0 -k MAC 
- -t 0.382993000 -s 0 -d -1 -p RTS -e 44 -c 2 -a 0 -i 0 -k MAC
h -t 0.382993000 -s 0 -d -1 -p RTS -e 44 -c 2 -a 0 -i 0 -k MAC
r -t 0.383345500 -s 1 -d -1 -p RTS -e 44 -c 2 -a 0 -i 0 -k MAC
+ -t 0.383355500 -s 1 -d -1 -p CTS -e 38 -c 2 -a 0 -i 0 -k MAC 
- -t 0.383355500 -s 1 -d -1 -p CTS -e 38 -c 2 -a 0 -i 0 -k MAC
h -t 0.383355500 -s 1 -d -1 -p CTS -e 38 -c 2 -a 0 -i 0 -k MAC
r -t 0.383660000 -s 0 -d -1 -p CTS -e 38 -c 2 -a 0 -i 0 -k MAC
+ -t 0.383670000 -s 0 -d 1 -p tcp -e 1098 -c 2 -a 0 -i 13 -k MAC 
- -t 0.383670000 -s 0 -d 1 -p tcp -e 1098 -c 2 -a 0 -i 13 -k MAC
h -t 0.383670000 -s 0 -d 1 -p tcp -e 1098 -c 2 -a 0 -i 13 -k MAC
r -t 0.392454500 -s 1 -d 1 -p tcp -e 1040 -c 2 -a 0 -i 13 -k MAC
+ -t 0.392464500 -s 1 -d -1 -p ACK -e 38 -c 2 -a 0 -i 0 -k MAC 
- -t 0.392464500 -s 1 -d -1 -p ACK -e 38 -c 2 -a 0 -i 0 -k MAC
h -t 0.392464500 -s 1 -d -1 -p ACK -e 38 -c 2 -a 0 -i 0 -k MAC
+ -t 0.392479500 -s 1 -d 0 -p ack -e 40 -c 2 -a 0 -i 22 -k RTR 
- -t 0.392479500 -s 1 -d 0 -p ack -e 40 -c 2 -a 0 -i 22 -k RTR
h -t 0.392479500 -s 1 -d 0 -p ack -e 40 -c 2 -a 0 -i 22 -k RTR
r -t 0.392769000 -s 0 -d -1 -p ACK -e 38 -c 2 -a 0 -i 0 -k MAC
+ -t 0.392958500 -s 1 -d -1 -p RTS -e 44 -c 2 -a 0 -i 0 -k MAC 
- -t 0.392958500 -s 1 -d -1 -p RTS -e 44 -c 2 -a 0 -i 0 -k MAC
h -t 0.392958500 -s 1 -d -1 -p RTS -e 44 -c 2 -a 0 -i 0 -k MAC
r -t 0.393311000 -s 0 -d -1 -p RTS -e 44 -c 2 -a 0 -i 0 -k MAC
+ -t 0.393321000 -s 0 -d -1 -p CTS -e 38 -c 2 -a 0 -i 0 -k MAC 
- -t 0.393321000 -s 0 -d -1 -p CTS -e 38 -c 2 -a 0 -i 0 -k MAC
h -t 0.393321000 -s 0 -d -1 -p CTS -e 38 -c 2 -a 0 -i 0 -k MAC
r -t 0.393625500 -s 1 -d -1 -p CTS -e 38 -c 2 -a 0 -i 0 -k MAC
+ -t 0.393635500 -s 1 -d 0 -p ack -e 98 -c 2 -a 0 -i 22 -k MAC 
- -t 0.393635500 -s 1 -d 0 -p ack -e 98 -c 2 -a 0 -i 22 -k MAC
h -t 0.393635500 -s 1 -d 0 -p ack -e 98 -c 2 -a 0 -i 22 -k MAC
r -t 0.394420000 -s 0 -d 0 -p ack -e 40 -c 2 -a 0 -i 22 -k MAC
+ -t 0.394430000 -s 0 -d -1 -p ACK -e 38 -c 2 -a 0 -i 0 -k MAC 
- -t 0.394430000 -s 0 -d -1 -p ACK -e 38 -c 2 -a 0 -i 0 -k MAC
h -t 0.394430000 -s 0 -d -1 -p ACK -e 38 -c 2 -a 0 -i 0 -k MAC
+ -t 0.394445000 -s 0 -d 1 -p tcp -e 1040 -c 2 -a 0 -i 23 -k RTR 
- -t 0.394445000 -s 0 -d 1 -p tcp -e 1040 -c 2 -a 0 -i 23 -k RTR
h -t 0.394445000 -s 0 -d 1 -p tcp -e 1040 -c 2 -a 0 -i 23 -k RTR
+ -t 0.394445000 -s 0 -d 1 -p tcp -e 1040 -c 2 -a 0 -i 24 -k RTR 
- -t 0.394445000 -s 0 -d 1 -p tcp -e 1040 -c 2 -a 0 -i 24 -k RTR
h -t 0.394445000 -s 0 -d 1 -p tcp -e 1040 -c 2 -a 0 -i 24 -k RTR
r -t 0.394734500 -s 1 -d -1 -p ACK -e 38 -c 2 -a 0 -i 0 -k MAC
+ -t 0.395184000 -s 0 -d -1 -p RTS -e 44 -c 2 -a 0 -i 0 -k MAC 
- -t 0.395184000 -s 0 -d -1 -p RTS -e 44 -c 2 -a 0 -i 0 -k MAC
h -t 0.395184000 -s 0 -d -1 -p RTS -e 44 -c 2 -a 0 -i 0 -k MAC
r -t 0.395536500 -s 1 -d -1 -p RTS -e 44 -c 2 -a 0 -i 0 -k MAC
+ -t 0.395546500 -s 1 -d -1 -p CTS -e 38 -c 2 -a 0 -i 0 -k MAC 
- -t 0.395546500 -s 1 -d -1 -p CTS -e 38 -c 2 -a 0 -i 0 -k MAC
h -t 0.395546500 -s 1 -d -1 -p CTS -e 38 -c 2 -a 0 -i 0 -k MAC
r -t 0.395851000 -s 0 -d -1 -p CTS -e 38 -c 2 -a 0 -i 0 -k MAC
+ -t 0.395861000 -s 0 -d 1 -p tcp -e 1098 -c 2 -a 0 -i 14 -k MAC 
- -t 0.395861000 -s 0 -d 1 -p tcp -e 1098 -c 2 -a 0 -i 14 -k MAC
h -t 0.395861000 -s 0 -d 1 -p tcp -e 1098 -c 2 -a 0 -i 14 -k MAC
r -t 0.404645500 -s 1 -d 1 -p tcp -e 1040 -c 2 -a 0 -i 14 -k MAC
+ -t 0.404655500 -s 1 -d -1 -p ACK -e 38 -c 2 -a 0 -i 0 -k MAC 
- -t 0.404655500 -s 1 -d -1 -p ACK -e 38 -c 2 -a 0 -i 0 -k MAC
h -t 0.404655500 -s 1 -d -1 -p ACK -e 38 -c 2 -a 0 -i 0 -k MAC
+ -t 0.404670500 -s 1 -d 0 -p ack -e 40 -c 2 -a 0 -i 25 -k RTR 
- -t 0.404670500 -s 1 -d 0 -p ack -e 40 -c 2 -a 0 -i 25 -k RTR
h -t 0.404670500 -s 1 -d 0 -p ack -e 40 -c 2 -a 0 -i 25 -k RTR
r -t 0.404960000 -s 0 -d -1 -p ACK -e 38 -c 2 -a 0 -i 0 -k MAC
+ -t 0.405030000 -s 0 -d -1 -p RTS -e 44 -c 2 -a 0 -i 0 -k MAC 
- -t 0.405030000 -s 0 -d -1 -p RTS -e 44 -c 2 -a 0 -i 0 -k MAC
h -t 0.405030000 -s 0 -d -1 -p RTS -e 44 -c 2 -a 0 -i 0 -k MAC
r -t 0.405382500 -s 1 -d -1 -p RTS -e 44 -c 2 -a 0 -i 0 -k MAC
+ -t 0.405392500 -s 1 -d -1 -p CTS -e 38 -c 2 -a 0 -i 0 -k MAC 
- -t 0.405392500 -s 1 -d -1 -p CTS -e 38 -c 2 -a 0 -i 0 -k MAC
h -t 0.405392500 -s 1 -d -1 -p CTS -e 38 -c 2 -a 0 -i 0 -k MAC
r -t 0.405697000 -s 0 -d -1 -p CTS -e 38 -c 2 -a 0 -i 0 -k MAC
+ -t 0.405707000 -s 0 -d 1 -p tcp -e 1098 -c 2 -a 0 -i 15 -k MAC 
- -t 0.405707000 -s 0 -d 1 -p tcp -e 1098 -c 2 -a 0 -i 15 -k MAC
h -t 0.405707000 -s 0 -d 1 -p tcp -e 1098 -c 2 -a 0 -i 15 -k MAC
r -t 0.414491500 -s 1 -d 1 -p tcp -e 1040 -c 2 -a 0 -i 15 -k MAC
+ -t 0.414501500 -s 1 -d -1 -p ACK -e 38 -c 2 -a 0 -i 0 -k MAC 
- -t 0.414501500 -s 1 -d -1 -p ACK -e 38 -c 2 -a 0 -i 0 -k MAC
h -t 0.414501500 -s 1 -d -1 -p ACK -e 38 -c 2 -a 0 -i 0 -k MAC
+ -t 0.414516500 -s 1 -d 0 -p ack -e 40 -c 2 -a 0 -i 26 -k RTR 
- -t 0.414516500 -s 1 -d 0 -p ack -e 40 -c 2 -a 0 -i 26 -k RTR
h -t 0.414516500 -s 1 -d 0 -p ack -e 40 -c 2 -a 0 -i 26 -k RTR
r -t 0.414806000 -s 0 -d -1 -p ACK -e 38 -c 2 -a 0 -i 0 -k MAC
+ -t 0.414896000 -s 0 -d -1 -p RTS -e 44 -c 2 -a 0 -i 0 -k MAC 
- -t 0.414896000 -s 0 -d -1 -p RTS -e 44 -c 2 -a 0 -i 0 -k MAC
h -t 0.414896000 -s 0 -d -1 -p RTS -e 44 -c 2 -a 0 -i 0 -k MAC
r -t 0.415248500 -s 1 -d -1 -p RTS -e 44 -c 2 -a 0 -i 0 -k MAC
+ -t 0.415258500 -s 1 -d -1 -p CTS -e 38 -c 2 -a 0 -i 0 -k MAC 
- -t 0.415258500 -s 1 -d -1 -p CTS -e 38 -c 2 -a 0 -i 0 -k MAC
h -t 0.415258500 -s 1 -d -1 -p CTS -e 38 -c 2 -a 0 -i 0 -k MAC
r -t 0.415563000 -s 0 -d -1 -p CTS -e 38 -c 2 -a 0 -i 0 -k MAC
+ -t 0.415573000 -s 0 -d 1 -p tcp -e 1098 -c 2 -a 0 -i 16 -k MAC 
- -t 0.415573000 -s 0 -d 1 -p tcp -e 1098 -c 2 -a 0 -i 16 -k MAC
h -t 0.415573000 -s 0 -d 1 -p tcp -e 1098 -c 2 -a 0 -i 16 -k MAC
r -t 0.424357500 -s 1 -d 1 -p tcp -e 1040 -c 2 -a 0 -i 16 -k MAC
+ -t 0.424367500 -s 1 -d -1 -p ACK -e 38 -c 2 -a 0 -i 0 -k MAC 
- -t 0.424367500 -s 1 -d -1 -p ACK -e 38 -c 2 -a 0 -i 0 -k MAC
h -t 0.424367500 -s 1 -d -1 -p ACK -e 38 -c 2 -a 0 -i 0 -k MAC
+ -t 0.424382500 -s 1 -d 0 -p ack -e 40 -c 2 -a 0 -i 27 -k RTR 
- -t 0.424382500 -s 1 -d 0 -p ack -e 40 -c 2 -a 0 -i 27 -k RTR
h -t 0.424382500 -s 1 -d 0 -p ack -e 40 -c 2 -a 0 -i 27 -k RTR
r -t 0.424672000 -s 0 -d -1 -p ACK -e 38 -c 2 -a 0 -i 0 -k MAC
+ -t 0.424821500 -s 1 -d -1 -p RTS -e 44 -c 2 -a 0 -i 0 -k MAC 
- -t 0.424821500 -s 1 -d -1 -p RTS -e 44 -c 2 -a 0 -i 0 -k MAC
h -t 0.424821500 -s 1 -d -1 -p RTS -e 44 -c 2 -a 0 -i 0 -k MAC
r -t 0.425174000 -s 0 -d -1 -p RTS -e 44 -c 2 -a 0 -i 0 -k MAC
+ -t 0.425184000 -s 0 -d -1 -p CTS -e 38 -c 2 -a 0 -i 0 -k MAC 
- -t 0.425184000 -s 0 -d -1 -p CTS -e 38 -c 2 -a 0 -i 0 -k MAC
h -t 0.425184000 -s 0 -d -1 -p CTS -e 38 -c 2 -a 0 -i 0 -k MAC
r -t 0.425488500 -s 1 -d -1 -p CTS -e 38 -c 2 -a 0 -i 0 -k MAC
+ -t 0.425498500 -s 1 -d 0 -p ack -e 98 -c 2 -a 0 -i 25 -k MAC 
- -t 0.425498500 -s 1 -d 0 -p ack -e 98 -c 2 -a 0 -i 25 -k MAC
h -t 0.425498500 -s 1 -d 0 -p ack -e 98 -c 2 -a 0 -i 25 -k MAC
r -t 0.426283000 -s 0 -d 0 -p ack -e 40 -c 2 -a 0 -i 25 -k MAC
+ -t 0.426293000 -s 0 -d -1 -p ACK -e 38 -c 2 -a 0 -i 0 -k MAC 
- -t 0.426293000 -s 0 -d -1 -p ACK -e 38 -c 2 -a 0 -i 0 -k MAC
h -t 0.426293000 -s 0 -d -1 -p ACK -e 38 -c 2 -a 0 -i 0 -k MAC
+ -t 0.426308000 -s 0 -d 1 -p tcp -e 1040 -c 2 -a 0 -i 28 -k RTR 
- -t 0.426308000 -s 0 -d 1 -p tcp -e 1040 -c 2 -a 0 -i 28 -k RTR
h -t 0.426308000 -s 0 -d 1 -p tcp -e 1040 -c 2 -a 0 -i 28 -k RTR
+ -t 0.426308000 -s 0 -d 1 -p tcp -e 1040 -c 2 -a 0 -i 29 -k RTR 
- -t 0.426308000 -s 0 -d 1 -p tcp -e 1040 -c 2 -a 0 -i 29 -k RTR
h -t 0.426308000 -s 0 -d 1 -p tcp -e 1040 -c 2 -a 0 -i 29 -k RTR
r -t 0.426597500 -s 1 -d -1 -p ACK -e 38 -c 2 -a 0 -i 0 -k MAC
+ -t 0.427087500 -s 1 -d -1 -p RTS -e 44 -c 2 -a 0 -i 0 -k MAC 
- -t 0.427087500 -s 1 -d -1 -p RTS -e 44 -c 2 -a 0 -i 0 -k MAC
h -t 0.427087500 -s 1 -d -1 -p RTS -e 44 -c 2 -a 0 -i 0 -k MAC
r -t 0.427440000 -s 0 -d -1 -p RTS -e 44 -c 2 -a 0 -i 0 -k MAC
+ -t 0.427450000 -s 0 -d -1 -p CTS -e 38 -c 2 -a 0 -i 0 -k MAC 
- -t 0.427450000 -s 0 -d -1 -p CTS -e 38 -c 2 -a 0 -i 0 -k MAC