M 0.00000 0 (100.00, 100.00, 0.00), (100.00, 100.00), 2000.00
M 0.00000 1 (150.00, 100.00, 0.00), (150.00, 100.00), 2000.00
r 1.000000000 _0_ RTR  --- 0 tcp 40 [0 0 0 0] ------- [0:0 1:0 32 0] [0 0] 0 0
s 1.000000000 _0_ RTR  --- 0 AODV 48 [0 0 0 0] ------- [0:255 -1:255 30 0] [0x2 1 1 [1 0] [0 4]] (REQUEST)
s 1.000575000 _0_ MAC  --- 0 AODV 106 [0 ffffffff 0 800] ------- [0:255 -1:255 30 0] [0x2 1 1 [1 0] [0 4]] (REQUEST)
r 1.001423167 _1_ MAC  --- 0 AODV 48 [0 ffffffff 0 800] ------- [0:255 -1:255 30 0] [0x2 1 1 [1 0] [0 4]] (REQUEST)
r 1.001448167 _1_ RTR  --- 0 AODV 48 [0 ffffffff 0 800] ------- [0:255 -1:255 30 0] [0x2 1 1 [1 0] [0 4]] (REQUEST)
s 1.001448167 _1_ RTR  --- 0 AODV 44 [0 0 0 0] ------- [1:255 0:255 30 0] [0x4 1 [1 4] 10.000000] (REPLY)
s 1.001743167 _1_ MAC  --- 0 ARP 86 [0 ffffffff 1 806] ------- [REQUEST 1/1 0/0]
r 1.002431333 _0_ MAC  --- 0 ARP 28 [0 ffffffff 1 806] ------- [REQUEST 1/1 0/0]
s 1.003086333 _0_ MAC  --- 0 RTS 44 [52e 1 0 0] 
r 1.003438500 _1_ MAC  --- 0 RTS 44 [52e 1 0 0] 
s 1.003448500 _1_ MAC  --- 0 CTS 38 [3f4 0 0 0] 
r 1.003752667 _0_ MAC  --- 0 CTS 38 [3f4 0 0 0] 
s 1.003762667 _0_ MAC  --- 0 ARP 86 [13a 1 0 806] ------- [REPLY 0/0 1/1]
r 1.004450833 _1_ MAC  --- 0 ARP 28 [13a 1 0 806] ------- [REPLY 0/0 1/1]
s 1.004460833 _1_ MAC  --- 0 ACK 38 [0 0 0 0] 
r 1.004765000 _0_ MAC  --- 0 ACK 38 [0 0 0 0] 
s 1.004834833 _1_ MAC  --- 0 RTS 44 [5ae 0 1 0] 
r 1.005187000 _0_ MAC  --- 0 RTS 44 [5ae 0 1 0] 
s 1.005197000 _0_ MAC  --- 0 CTS 38 [474 1 0 0] 
r 1.005501167 _1_ MAC  --- 0 CTS 38 [474 1 0 0] 
s 1.005511167 _1_ MAC  --- 0 AODV 102 [13a 0 1 800] ------- [1:255 0:255 30 0] [0x4 1 [1 4] 10.000000] (REPLY)
r 1.006327333 _0_ MAC  --- 0 AODV 44 [13a 0 1 800] ------- [1:255 0:255 30 0] [0x4 1 [1 4] 10.000000] (REPLY)
s 1.006337333 _0_ MAC  --- 0 ACK 38 [0 1 0 0] 
r 1.006352333 _0_ RTR  --- 0 AODV 44 [13a 0 1 800] ------- [1:255 0:255 30 0] [0x4 1 [1 4] 10.000000] (REPLY)
s 1.006352333 _0_ RTR  --- 0 tcp 40 [0 0 0 0] ------- [0:0 1:0 30 1] [0 0] 0 0
r 1.006641500 _1_ MAC  --- 0 ACK 38 [0 1 0 0] 
s 1.006811333 _0_ MAC  --- 0 RTS 44 [58e 1 0 0] 
r 1.007163500 _1_ MAC  --- 0 RTS 44 [58e 1 0 0] 
s 1.007173500 _1_ MAC  --- 0 CTS 38 [454 0 0 0] 
r 1.007477667 _0_ MAC  --- 0 CTS 38 [454 0 0 0] 
s 1.007487667 _0_ MAC  --- 0 tcp 98 [13a 1 0 800] ------- [0:0 1:0 30 1] [0 0] 0 0
r 1.008271833 _1_ MAC  --- 0 tcp 40 [13a 1 0 800] ------- [0:0 1:0 30 1] [0 0] 1 0
s 1.008281833 _1_ MAC  --- 0 ACK 38 [0 0 0 0] 
r 1.008296833 _1_ RTR  --- 1 ack 40 [0 0 0 0] ------- [1:0 0:0 32 0] [0 0] 0 0
s 1.008296833 _1_ RTR  --- 1 ack 40 [0 0 0 0] ------- [1:0 0:0 30 0] [0 0] 0 0
r 1.008586000 _0_ MAC  --- 0 ACK 38 [0 0 0 0] 
s 1.008775833 _1_ MAC  --- 0 RTS 44 [58e 0 1 0] 
r 1.009128000 _0_ MAC  --- 0 RTS 44 [58e 0 1 0] 
s 1.009138000 _0_ MAC  --- 0 CTS 38 [454 1 0 0] 
r 1.009442167 _1_ MAC  --- 0 CTS 38 [454 1 0 0] 
s 1.009452167 _1_ MAC  --- 1 ack 98 [13a 0 1 800] ------- [1:0 0:0 30 0] [0 0] 0 0
r 1.010236333 _0_ MAC  --- 1 ack 40 [13a 0 1 800] ------- [1:0 0:0 30 0] [0 0] 1 0
s 1.010246333 _0_ MAC  --- 0 ACK 38 [0 1 0 0] 
r 1.010261333 _0_ RTR  --- 2 tcp 1040 [0 0 0 0] ------- [0:0 1:0 32 0] [1 0] 0 0
r 1.010261333 _0_ RTR  --- 3 tcp 1040 [0 0 0 0] ------- [0:0 1:0 32 0] [2 0] 0 0
s 1.010261333 _0_ RTR  --- 2 tcp 1040 [0 0 0 0] ------- [0:0 1:0 30 1] [1 0] 0 0
s 1.010261333 _0_ RTR  --- 3 tcp 1040 [0 0 0 0] ------- [0:0 1:0 30 1] [2 0] 0 0
r 1.010550500 _1_ MAC  --- 0 ACK 38 [0 1 0 0] 
s 1.010660333 _0_ MAC  --- 0 RTS 44 [24ce 1 0 0] 
r 1.011012500 _1_ MAC  --- 0 RTS 44 [24ce 1 0 0] 
s 1.011022500 _1_ MAC  --- 0 CTS 38 [2394 0 0 0] 
r 1.011326667 _0_ MAC  --- 0 CTS 38 [2394 0 0 0] 
s 1.011336667 _0_ MAC  --- 2 tcp 1098 [13a 1 0 800] ------- [0:0 1:0 30 1] [1 0] 0 0
r 1.020120833 _1_ MAC  --- 2 tcp 1040 [13a 1 0 800] ------- [0:0 1:0 30 1] [1 0] 1 0
s 1.020130833 _1_ MAC  --- 0 ACK 38 [0 0 0 0] 
r 1.020145833 _1_ RTR  --- 4 ack 40 [0 0 0 0] ------- [1:0 0:0 32 0] [1 0] 0 0
s 1.020145833 _1_ RTR  --- 4 ack 40 [0 0 0 0] ------- [1:0 0:0 30 0] [1 0] 0 0
r 1.020435000 _0_ MAC  --- 0 ACK 38 [0 0 0 0] 
s 1.020905000 _0_ MAC  --- 0 RTS 44 [24ce 1 0 0] 
r 1.021257167 _1_ MAC  --- 0 RTS 44 [24ce 1 0 0] 
s 1.021267167 _1_ MAC  --- 0 CTS 38 [2394 0 0 0] 
r 1.021571333 _0_ MAC  --- 0 CTS 38 [2394 0 0 0] 
s 1.021581333 _0_ MAC  --- 3 tcp 1098 [13a 1 0 800] ------- [0:0 1:0 30 1] [2 0] 0 0
r 1.030365500 _1_ MAC  --- 3 tcp 1040 [13a 1 0 800] ------- [0:0 1:0 30 1] [2 0] 1 0
s 1.030375500 _1_ MAC  --- 0 ACK 38 [0 0 0 0] 
r 1.030390500 _1_ RTR  --- 5 ack 40 [0 0 0 0] ------- [1:0 0:0 32 0] [2 0] 0 0
s 1.030390500 _1_ RTR  --- 5 ack 40 [0 0 0 0] ------- [1:0 0:0 30 0] [2 0] 0 0
r 1.030679667 _0_ MAC  --- 0 ACK 38 [0 0 0 0] 
s 1.030869500 _1_ MAC  --- 0 RTS 44 [58e 0 1 0] 
r 1.031221667 _0_ MAC  --- 0 RTS 44 [58e 0 1 0] 
s 1.031231667 _0_ MAC  --- 0 CTS 38 [454 1 0 0] 
r 1.031535833 _1_ MAC  --- 0 CTS 38 [454 1 0 0] 
s 1.031545833 _1_ MAC  --- 4 ack 98 [13a 0 1 800] ------- [1:0 0:0 30 0] [1 0] 0 0
r 1.032330000 _0_ MAC  --- 4 ack 40 [13a 0 1 800] ------- [1:0 0:0 30 0] [1 0] 1 0
s 1.032340000 _0_ MAC  --- 0 ACK 38 [0 1 0 0] 
r 1.032355000 _0_ RTR  --- 6 tcp 1040 [0 0 0 0] ------- [0:0 1:0 32 0] [3 0] 0 0
r 1.032355000 _0_ RTR  --- 7 tcp 1040 [0 0 0 0] ------- [0:0 1:0 32 0] [4 0] 0 0
s 1.032355000 _0_ RTR  --- 6 tcp 1040 [0 0 0 0] ------- [0:0 1:0 30 1] [3 0] 0 0
s 1.032355000 _0_ RTR  --- 7 tcp 1040 [0 0 0 0] ------- [0:0 1:0 30 1] [4 0] 0 0
r 1.032644167 _1_ MAC  --- 0 ACK 38 [0 1 0 0] 
s 1.032814000 _0_ MAC  --- 0 RTS 44 [24ce 1 0 0] 
r 1.033166167 _1_ MAC  --- 0 RTS 44 [24ce 1 0 0] 
s 1.033176167 _1_ MAC  --- 0 CTS 38 [2394 0 0 0] 
r 1.033480333 _0_ MAC  --- 0 CTS 38 [2394 0 0 0] 
s 1.033490333 _0_ MAC  --- 6 tcp 1098 [13a 1 0 800] ------- [0:0 1:0 30 1] [3 0] 0 0
r 1.042274500 _1_ MAC  --- 6 tcp 1040 [13a 1 0 800] ------- [0:0 1:0 30 1] [3 0] 1 0
s 1.042284500 _1_ MAC  --- 0 ACK 38 [0 0 0 0] 
r 1.042299500 _1_ RTR  --- 8 ack 40 [0 0 0 0] ------- [1:0 0:0 32 0] [3 0] 0 0
s 1.042299500 _1_ RTR  --- 8 ack 40 [0 0 0 0] ------- [1:0 0:0 30 0] [3 0] 0 0
r 1.042588667 _0_ MAC  --- 0 ACK 38 [0 0 0 0] 
s 1.042798667 _0_ MAC  --- 0 RTS 44 [24ce 1 0 0] 
r 1.043150833 _1_ MAC  --- 0 RTS 44 [24ce 1 0 0] 
s 1.043160833 _1_ MAC  --- 0 CTS 38 [2394 0 0 0] 
r 1.043465000 _0_ MAC  --- 0 CTS 38 [2394 0 0 0] 
s 1.043475000 _0_ MAC  --- 7 tcp 1098 [13a 1 0 800] ------- [0:0 1:0 30 1] [4 0] 0 0
r 1.052259167 _1_ MAC  --- 7 tcp 1040 [13a 1 0 800] ------- [0:0 1:0 30 1] [4 0] 1 0
s 1.052269167 _1_ MAC  --- 0 ACK 38 [0 0 0 0] 
r 1.052284167 _1_ RTR  --- 9 ack 40 [0 0 0 0] ------- [1:0 0:0 32 0] [4 0] 0 0
s 1.052284167 _1_ RTR  --- 9 ack 40 [0 0 0 0] ------- [1:0 0:0 30 0] [4 0] 0 0
r 1.052573333 _0_ MAC  --- 0 ACK 38 [0 0 0 0] 
s 1.052943167 _1_ MAC  --- 0 RTS 44 [58e 0 1 0] 
r 1.053295333 _0_ MAC  --- 0 RTS 44 [58e 0 1 0] 
s 1.053305333 _0_ MAC  --- 0 CTS 38 [454 1 0 0] 
r 1.053609500 _1_ MAC  --- 0 CTS 38 [454 1 0 0] 
s 1.053619500 _1_ MAC  --- 5 ack 98 [13a 0 1 800] ------- [1:0 0:0 30 0] [2 0] 0 0
r 1.054403667 _0_ MAC  --- 5 ack 40 [13a 0 1 800] ------- [1:0 0:0 30 0] [2 0] 1 0
s 1.054413667 _0_ MAC  --- 0 ACK 38 [0 1 0 0] 
r 1.054428667 _0_ RTR  --- 10 tcp 1040 [0 0 0 0] ------- [0:0 1:0 32 0] [5 0] 0 0
r 1.054428667 _0_ RTR  --- 11 tcp 1040 [0 0 0 0] ------- [0:0 1:0 32 0] [6 0] 0 0
s 1.054428667 _0_ RTR  --- 10 tcp 1040 [0 0 0 0] ------- [0:0 1:0 30 1] [5 0] 0 0
s 1.054428667 _0_ RTR  --- 11 tcp 1040 [0 0 0 0] ------- [0:0 1:0 30 1] [6 0] 0 0
r 1.054717833 _1_ MAC  --- 0 ACK 38 [0 1 0 0] 
s 1.055007667 _0_ MAC  --- 0 RTS 44 [24ce 1 0 0] 
r 1.055359833 _1_ MAC  --- 0 RTS 44 [24ce 1 0 0] 
s 1.055369833 _1_ MAC  --- 0 CTS 38 [2394 0 0 0] 
r 1.055674000 _0_ MAC  --- 0 CTS 38 [2394 0 0 0] 
s 1.055684000 _0_ MAC  --- 10 tcp 1098 [13a 1 0 800] ------- [0:0 1:0 30 1] [5 0] 0 0
r 1.064468167 _1_ MAC  --- 10 tcp 1040 [13a 1 0 800] ------- [0:0 1:0 30 1] [5 0] 1 0
s 1.064478167 _1_ MAC  --- 0 ACK 38 [0 0 0 0] 
r 1.064493167 _1_ RTR  --- 12 ack 40 [0 0 0 0] ------- [1:0 0:0 32 0] [5 0] 0 0
s 1.064493167 _1_ RTR  --- 12 ack 40 [0 0 0 0] ------- [1:0 0:0 30 0] [5 0] 0 0
r 1.064782333 _0_ MAC  --- 0 ACK 38 [0 0 0 0] 
s 1.065052167 _1_ MAC  --- 0 RTS 44 [58e 0 1 0] 
r 1.065404333 _0_ MAC  --- 0 RTS 44 [58e 0 1 0] 
s 1.065414333 _0_ MAC  --- 0 CTS 38 [454 1 0 0] 
r 1.065718500 _1_ MAC  --- 0 CTS 38 [454 1 0 0] 
s 1.065728500 _1_ MAC  --- 8 ack 98 [13a 0 1 800] ------- [1:0 0:0 30 0] [3 0] 0 0
r 1.066512667 _0_ MAC  --- 8 ack 40 [13a 0 1 800] ------- [1:0 0:0 30 0] [3 0] 1 0
s 1.066522667 _0_ MAC  --- 0 ACK 38 [0 1 0 0] 
r 1.066537667 _0_ RTR  --- 13 tcp 1040 [0 0 0 0] ------- [0:0 1:0 32 0] [7 0] 0 0
r 1.066537667 _0_ RTR  --- 14 tcp 1040 [0 0 0 0] ------- [0:0 1:0 32 0] [8 0] 0 0
s 1.066537667 _0_ RTR  --- 13 tcp 1040 [0 0 0 0] ------- [0:0 1:0 30 1] [7 0] 0 0
s 1.066537667 _0_ RTR  --- 14 tcp 1040 [0 0 0 0] ------- [0:0 1:0 30 1] [8 0] 0 0
r 1.066826833 _1_ MAC  --- 0 ACK 38 [0 1 0 0] 
s 1.067116833 _1_ MAC  --- 0 RTS 44 [58e 0 1 0] 
r 1.067469000 _0_ MAC  --- 0 RTS 44 [58e 0 1 0] 
s 1.067479000 _0_ MAC  --- 0 CTS 38 [454 1 0 0] 
r 1.067783167 _1_ MAC  --- 0 CTS 38 [454 1 0 0] 
s 1.067793167 _1_ MAC  --- 9 ack 98 [13a 0 1 800] ------- [1:0 0:0 30 0] [4 0] 0 0
r 1.068577333 _0_ MAC  --- 9 ack 40 [13a 0 1 800] ------- [1:0 0:0 30 0] [4 0] 1 0
s 1.068587333 _0_ MAC  --- 0 ACK 38 [0 1 0 0] 
r 1.068602333 _0_ RTR  --- 15 tcp 1040 [0 0 0 0] ------- [0:0 1:0 32 0] [9 0] 0 0
r 1.068602333 _0_ RTR  --- 16 tcp 1040 [0 0 0 0] ------- [0:0 1:0 32 0] [10 0] 0 0
s 1.068602333 _0_ RTR  --- 15 tcp 1040 [0 0 0 0] ------- [0:0 1:0 30 1] [9 0] 0 0
s 1.068602333 _0_ RTR  --- 16 tcp 1040 [0 0 0 0] ------- [0:0 1:0 30 1] [10 0] 0 0
r 1.068891500 _1_ MAC  --- 0 ACK 38 [0 1 0 0] 
s 1.068941500 _1_ MAC  --- 0 RTS 44 [58e 0 1 0] 
r 1.069293667 _0_ MAC  --- 0 RTS 44 [58e 0 1 0] 
s 1.069303667 _0_ MAC  --- 0 CTS 38 [454 1 0 0] 
r 1.069607833 _1_ MAC  --- 0 CTS 38 [454 1 0 0] 
s 1.069617833 _1_ MAC  --- 12 ack 98 [13a 0 1 800] ------- [1:0 0:0 30 0] [5 0] 0 0
r 1.070402000 _0_ MAC  --- 12 ack 40 [13a 0 1 800] ------- [1:0 0:0 30 0] [5 0] 1 0
s 1.070412000 _0_ MAC  --- 0 ACK 38 [0 1 0 0] 
r 1.070427000 _0_ RTR  --- 17 tcp 1040 [0 0 0 0] ------- [0:0 1:0 32 0] [11 0] 0 0
r 1.070427000 _0_ RTR  --- 18 tcp 1040 [0 0 0 0] ------- [0:0 1:0 32 0] [12 0] 0 0
s 1.070427000 _0_ RTR  --- 17 tcp 1040 [0 0 0 0] ------- [0:0 1:0 30 1] [11 0] 0 0
s 1.070427000 _0_ RTR  --- 18 tcp 1040 [0 0 0 0] ------- [0:0 1:0 30 1] [12 0] 0 0
r 1.070716167 _1_ MAC  --- 0 ACK 38 [0 1 0 0] 
s 1.070826000 _0_ MAC  --- 0 RTS 44 [24ce 1 0 0] 
r 1.071178167 _1_ MAC  --- 0 RTS 44 [24ce 1 0 0] 
s 1.071188167 _1_ MAC  --- 0 CTS 38 [2394 0 0 0] 
r 1.071492333 _0_ MAC  --- 0 CTS 38 [2394 0 0 0] 
s 1.071502333 _0_ MAC  --- 11 tcp 1098 [13a 1 0 800] ------- [0:0 1:0 30 1] [6 0] 0 0
r 1.080286500 _1_ MAC  --- 11 tcp 1040 [13a 1 0 800] ------- [0:0 1:0 30 1] [6 0] 1 0
s 1.080296500 _1_ MAC  --- 0 ACK 38 [0 0 0 0] 
r 1.080311500 _1_ RTR  --- 19 ack 40 [0 0 0 0] ------- [1:0 0:0 32 0] [6 0] 0 0
s 1.080311500 _1_ RTR  --- 19 ack 40 [0 0 0 0] ------- [1:0 0:0 30 0] [6 0] 0 0
r 1.080600667 _0_ MAC  --- 0 ACK 38 [0 0 0 0] 
s 1.080750500 _1_ MAC  --- 0 RTS 44 [58e 0 1 0] 
r 1.081102667 _0_ MAC  --- 0 RTS 44 [58e 0 1 0] 
s 1.081112667 _0_ MAC  --- 0 CTS 38 [454 1 0 0] 
r 1.081416833 _1_ MAC  --- 0 CTS 38 [454 1 0 0] 
s 1.081426833 _1_ MAC  --- 19 ack 98 [13a 0 1 800] ------- [1:0 0:0 30 0] [6 0] 0 0
r 1.082211000 _0_ MAC  --- 19 ack 40 [13a 0 1 800] ------- [1:0 0:0 30 0] [6 0] 1 0
s 1.082221000 _0_ MAC  --- 0 ACK 38 [0 1 0 0] 
r 1.082236000 _0_ RTR  --- 20 tcp 1040 [0 0 0 0] ------- [0:0 1:0 32 0] [13 0] 0 0
r 1.082236000 _0_ RTR  --- 21 tcp 1040 [0 0 0 0] ------- [0:0 1:0 32 0] [14 0] 0 0
s 1.082236000 _0_ RTR  --- 20 tcp 1040 [0 0 0 0] ------- [0:0 1:0 30 1] [13 0] 0 0
s 1.082236000 _0_ RTR  --- 21 tcp 1040 [0 0 0 0] ------- [0:0 1:0 30 1] [14 0] 0 0
r 1.082525167 _1_ MAC  --- 0 ACK 38 [0 1 0 0] 
s 1.083035000 _0_ MAC  --- 0 RTS 44 [24ce 1 0 0] 
r 1.083387167 _1_ MAC  --- 0 RTS 44 [24ce 1 0 0] 
s 1.083397167 _1_ MAC  --- 0 CTS 38 [2394 0 0 0] 
r 1.083701333 _0_ MAC  --- 0 CTS 38 [2394 0 0 0] 
s 1.083711333 _0_ MAC  --- 13 tcp 1098 [13a 1 0 800] ------- [0:0 1:0 30 1] [7 0] 0 0
r 1.092495500 _1_ MAC  --- 13 tcp 1040 [13a 1 0 800] ------- [0:0 1:0 30 1] [7 0] 1 0
s 1.092505500 _1_ MAC  --- 0 ACK 38 [0 0 0 0] 
r 1.092520500 _1_ RTR  --- 22 ack 40 [0 0 0 0] ------- [1:0 0:0 32 0] [7 0] 0 0
s 1.092520500 _1_ RTR  --- 22 ack 40 [0 0 0 0] ------- [1:0 0:0 30 0] [7 0] 0 0
r 1.092809667 _0_ MAC  --- 0 ACK 38 [0 0 0 0] 
s 1.092999500 _1_ MAC  --- 0 RTS 44 [58e 0 1 0] 
r 1.093351667 _0_ MAC  --- 0 RTS 44 [58e 0 1 0] 
s 1.093361667 _0_ MAC  --- 0 CTS 38 [454 1 0 0] 
r 1.093665833 _1_ MAC  --- 0 CTS 38 [454 1 0 0] 
s 1.093675833 _1_ MAC  --- 22 ack 98 [13a 0 1 800] ------- [1:0 0:0 30 0] [7 0] 0 0
r 1.094460000 _0_ MAC  --- 22 ack 40 [13a 0 1 800] ------- [1:0 0:0 30 0] [7 0] 1 0
s 1.094470000 _0_ MAC  --- 0 ACK 38 [0 1 0 0] 
r 1.094485000 _0_ RTR  --- 23 tcp 1040 [0 0 0 0] ------- [0:0 1:0 32 0] [15 0] 0 0
r 1.094485000 _0_ RTR  --- 24 tcp 1040 [0 0 0 0] ------- [0:0 1:0 32 0] [16 0] 0 0
s 1.094485000 _0_ RTR  --- 23 tcp 1040 [0 0 0 0] ------- [0:0 1:0 30 1] [15 0] 0 0
s 1.094485000 _0_ RTR  --- 24 tcp 1040 [0 0 0 0] ------- [0:0 1:0 30 1] [16 0] 0 0
r 1.094774167 _1_ MAC  --- 0 ACK 38 [0 1 0 0] 
s 1.095244000 _0_ MAC  --- 0 RTS 44 [24ce 1 0 0] 
r 1.095596167 _1_ MAC  --- 0 RTS 44 [24ce 1 0 0] 
s 1.095606167 _1_ MAC  --- 0 CTS 38 [2394 0 0 0] 
r 1.095910333 _0_ MAC  --- 0 CTS 38 [2394 0 0 0] 
s 1.095920333 _0_ MAC  --- 14 tcp 1098 [13a 1 0 800] ------- [0:0 1:0 30 1] [8 0] 0 0
r 1.104704500 _1_ MAC  --- 14 tcp 1040 [13a 1 0 800] ------- [0:0 1:0 30 1] [8 0] 1 0
s 1.104714500 _1_ MAC  --- 0 ACK 38 [0 0 0 0] 
r 1.104729500 _1_ RTR  --- 25 ack 40 [0 0 0 0] ------- [1:0 0:0 32 0] [8 0] 0 0
s 1.104729500 _1_ RTR  --- 25 ack 40 [0 0 0 0] ------- [1:0 0:0 30 0] [8 0] 0 0
r 1.105018667 _0_ MAC  --- 0 ACK 38 [0 0 0 0] 
s 1.105088667 _0_ MAC  --- 0 RTS 44 [24ce 1 0 0] 
r 1.105440833 _1_ MAC  --- 0 RTS 44 [24ce 1 0 0] 
s 1.105450833 _1_ MAC  --- 0 CTS 38 [2394 0 0 0] 
r 1.105755000 _0_ MAC  --- 0 CTS 38 [2394 0 0 0] 
s 1.105765000 _0_ MAC  --- 15 tcp 1098 [13a 1 0 800] ------- [0:0 1:0 30 1] [9 0] 0 0
r 1.114549167 _1_ MAC  --- 15 tcp 1040 [13a 1 0 800] ------- [0:0 1:0 30 1] [9 0] 1 0
s 1.114559167 _1_ MAC  --- 0 ACK 38 [0 0 0 0] 
r 1.114574167 _1_ RTR  --- 26 ack 40 [0 0 0 0] ------- [1:0 0:0 32 0] [9 0] 0 0
s 1.114574167 _1_ RTR  --- 26 ack 40 [0 0 0 0] ------- [1:0 0:0 30 0] [9 0] 0 0
r 1.114863333 _0_ MAC  --- 0 ACK 38 [0 0 0 0] 
s 1.114953333 _0_ MAC  --- 0 RTS 44 [24ce 1 0 0] 
r 1.115305500 _1_ MAC  --- 0 RTS 44 [24ce 1 0 0] 
s 1.115315500 _1_ MAC  --- 0 CTS 38 [2394 0 0 0] 
r 1.115619667 _0_ MAC  --- 0 CTS 38 [2394 0 0 0] 
s 1.115629667 _0_ MAC  --- 16 tcp 1098 [13a 1 0 800] ------- [0:0 1:0 30 1] [10 0] 0 0
r 1.124413833 _1_ MAC  --- 16 tcp 1040 [13a 1 0 800] ------- [0:0 1:0 30 1] [10 0] 1 0
s 1.124423833 _1_ MAC  --- 0 ACK 38 [0 0 0 0] 
r 1.124438833 _1_ RTR  --- 27 ack 40 [0 0 0 0] ------- [1:0 0:0 32 0] [10 0] 0 0
s 1.124438833 _1_ RTR  --- 27 ack 40 [0 0 0 0] ------- [1:0 0:0 30 0] [10 0] 0 0
r 1.124728000 _0_ MAC  --- 0 ACK 38 [0 0 0 0] 
s 1.124877833 _1_ MAC  --- 0 RTS 44 [58e 0 1 0] 
r 1.125230000 _0_ MAC  --- 0 RTS 44 [58e 0 1 0] 
s 1.125240000 _0_ MAC  --- 0 CTS 38 [454 1 0 0] 
r 1.125544167 _1_ MAC  --- 0 CTS 38 [454 1 0 0] 
s 1.125554167 _1_ MAC  --- 25 ack 98 [13a 0 1 800] ------- [1:0 0:0 30 0] [8 0] 0 0
r 1.126338333 _0_ MAC  --- 25 ack 40 [13a 0 1 800] ------- [1:0 0:0 30 0] [8 0] 1 0
s 1.126348333 _0_ MAC  --- 0 ACK 38 [0 1 0 0] 
r 1.126363333 _0_ RTR  --- 28 tcp 1040 [0 0 0 0] ------- [0:0 1:0 32 0] [17 0] 0 0
r 1.126363333 _0_ RTR  --- 29 tcp 1040 [0 0 0 0] ------- [0:0 1:0 32 0] [18 0] 0 0
s 1.126363333 _0_ RTR  --- 28 tcp 1040 [0 0 0 0] ------- [0:0 1:0 30 1] [17 0] 0 0
s 1.126363333 _0_ RTR  --- 29 tcp 1040 [0 0 0 0] ------- [0:0 1:0 30 1] [18 0] 0 0
r 1.126652500 _1_ MAC  --- 0 ACK 38 [0 1 0 0] 
s 1.127142500 _1_ MAC  --- 0 RTS 44 [58e 0 1 0] 
r 1.127494667 _0_ MAC  --- 0 RTS 44 [58e 0 1 0] 
s 1.127504667 _0_ MAC  --- 0 CTS 38 [454 1 0 0] 
r 1.127808833 _1_ MAC  --- 0 CTS 38 [454 1 0 0] 
s 1.127818833 _1_ MAC  --- 26 ack 98 [13a 0 1 800] ------- [1:0 0:0 30 0] [9 0] 0 0
r 1.128603000 _0_ MAC  --- 26 ack 40 [13a 0 1 800] ------- [1:0 0:0 30 0] [9 0] 1 0
s 1.128613000 _0_ MAC  --- 0 ACK 38 [0 1 0 0] 
r 1.128628000 _0_ RTR  --- 30 tcp 1040 [0 0 0 0] ------- [0:0 1:0 32 0] [19 0] 0 0
r 1.128628000 _0_ RTR  --- 31 tcp 1040 [0 0 0 0] ------- [0:0 1:0 32 0] [20 0] 0 0
s 1.128628000 _0_ RTR  --- 30 tcp 1040 [0 0 0 0] ------- [0:0 1:0 30 1] [19 0] 0 0
s 1.128628000 _0_ RTR  --- 31 tcp 1040 [0 0 0 0] ------- [0:0 1:0 30 1] [20 0] 0 0
r 1.128917167 _1_ MAC  --- 0 ACK 38 [0 1 0 0] 
s 1.128987000 _0_ MAC  --- 0 RTS 44 [24ce 1 0 0] 
r 1.129339167 _1_ MAC  --- 0 RTS 44 [24ce 1 0 0] 
s 1.129349167 _1_ MAC  --- 0 CTS 38 [2394 0 0 0] 
r 1.129653333 _0_ MAC  --- 0 CTS 38 [2394 0 0 0] 
s 1.129663333 _0_ MAC  --- 17 tcp 1098 [13a 1 0 800] ------- [0:0 1:0 30 1] [11 0] 0 0
r 1.138447500 _1_ MAC  --- 17 tcp 1040 [13a 1 0 800] ------- [0:0 1:0 30 1] [11 0] 1 0
s 1.138457500 _1_ MAC  --- 0 ACK 38 [0 0 0 0] 
r 1.138472500 _1_ RTR  --- 32 ack 40 [0 0 0 0] ------- [1:0 0:0 32 0] [11 0] 0 0
s 1.138472500 _1_ RTR  --- 32 ack 40 [0 0 0 0] ------- [1:0 0:0 30 0] [11 0] 0 0
r 1.138761667 _0_ MAC  --- 0 ACK 38 [0 0 0 0] 
s 1.138951500 _1_ MAC  --- 0 RTS 44 [58e 0 1 0] 
r 1.139303667 _0_ MAC  --- 0 RTS 44 [58e 0 1 0] 
s 1.139313667 _0_ MAC  --- 0 CTS 38 [454 1 0 0] 
r 1.139617833 _1_ MAC  --- 0 CTS 38 [454 1 0 0] 
s 1.139627833 _1_ MAC  --- 27 ack 98 [13a 0 1 800] ------- [1:0 0:0 30 0] [10 0] 0 0
r 1.140412000 _0_ MAC  --- 27 ack 40 [13a 0 1 800] ------- [1:0 0:0 30 0] [10 0] 1 0
s 1.140422000 _0_ MAC  --- 0 ACK 38 [0 1 0 0] 
r 1.140437000 _0_ RTR  --- 33 tcp 1040 [0 0 0 0] ------- [0:0 1:0 32 0] [21 0] 0 0
r 1.140437000 _0_ RTR  --- 34 tcp 1040 [0 0 0 0] ------- [0:0 1:0 32 0] [22 0] 0 0
s 1.140437000 _0_ RTR  --- 33 tcp 1040 [0 0 0 0] ------- [0:0 1:0 30 1] [21 0] 0 0
s 1.140437000 _0_ RTR  --- 34 tcp 1040 [0 0 0 0] ------- [0:0 1:0 30 1] [22 0] 0 0
r 1.140726167 _1_ MAC  --- 0 ACK 38 [0 1 0 0] 
s 1.140976000 _0_ MAC  --- 0 RTS 44 [24ce 1 0 0] 
r 1.141328167 _1_ MAC  --- 0 RTS 44 [24ce 1 0 0] 
s 1.141338167 _1_ MAC  --- 0 CTS 38 [2394 0 0 0] 
r 1.141642333 _0_ MAC  --- 0 CTS 38 [2394 0 0 0] 
s 1.141652333 _0_ MAC  --- 18 tcp 1098 [13a 1 0 800] ------- [0:0 1:0 30 1] [12 0] 0 0
r 1.150436500 _1_ MAC  --- 18 tcp 1040 [13a 1 0 800] ------- [0:0 1:0 30 1] [12 0] 1 0
s 1.150446500 _1_ MAC  --- 0 ACK 38 [0 0 0 0] 
r 1.150461500 _1_ RTR  --- 35 ack 40 [0 0 0 0] ------- [1:0 0:0 32 0] [12 0] 0 0
s 1.150461500 _1_ RTR  --- 35 ack 40 [0 0 0 0] ------- [1:0 0:0 30 0] [12 0] 0 0
r 1.150750667 _0_ MAC  --- 0 ACK 38 [0 0 0 0] 
s 1.151000500 _1_ MAC  --- 0 RTS 44 [58e 0 1 0] 
r 1.151352667 _0_ MAC  --- 0 RTS 44 [58e 0 1 0] 
s 1.151362667 _0_ MAC  --- 0 CTS 38 [454 1 0 0] 
r 1.151666833 _1_ MAC  --- 0 CTS 38 [454 1 0 0] 
s 1.151676833 _1_ MAC  --- 32 ack 98 [13a 0 1 800] ------- [1:0 0:0 30 0] [11 0] 0 0
r 1.152461000 _0_ MAC  --- 32 ack 40 [13a 0 1 800] ------- [1:0 0:0 30 0] [11 0] 1 0
s 1.152471000 _0_ MAC  --- 0 ACK 38 [0 1 0 0] 
r 1.152486000 _0_ RTR  --- 36 tcp 1040 [0 0 0 0] ------- [0:0 1:0 32 0] [23 0] 0 0
r 1.152486000 _0_ RTR  --- 37 tcp 1040 [0 0 0 0] ------- [0:0 1:0 32 0] [24 0] 0 0
s 1.152486000 _0_ RTR  --- 36 tcp 1040 [0 0 0 0] ------- [0:0 1:0 30 1] [23 0] 0 0
s 1.152486000 _0_ RTR  --- 37 tcp 1040 [0 0 0 0] ------- [0:0 1:0 30 1] [24 0] 0 0
r 1.152775167 _1_ MAC  --- 0 ACK 38 [0 1 0 0] 
s 1.152925167 _1_ MAC  --- 0 RTS 44 [58e 0 1 0] 
r 1.153277333 _0_ MAC  --- 0 RTS 44 [58e 0 1 0] 
s 1.153287333 _0_ MAC  --- 0 CTS 38 [454 1 0 0] 
r 1.153591500 _1_ MAC  --- 0 CTS 38 [454 1 0 0] 
s 1.153601500 _1_ MAC  --- 35 ack 98 [13a 0 1 800] ------- [1:0 0:0 30 0] [12 0] 0 0
r 1.154385667 _0_ MAC  --- 35 ack 40 [13a 0 1 800] ------- [1:0 0:0 30 0] [12 0] 1 0
s 1.154395667 _0_ MAC  --- 0 ACK 38 [0 1 0 0] 
r 1.154410667 _0_ RTR  --- 38 tcp 1040 [0 0 0 0] ------- [0:0 1:0 32 0] [25 0] 0 0
r 1.154410667 _0_ RTR  --- 39 tcp 1040 [0 0 0 0] ------- [0:0 1:0 32 0] [26 0] 0 0
s 1.154410667 _0_ RTR  --- 38 tcp 1040 [0 0 0 0] ------- [0:0 1:0 30 1] [25 0] 0 0
s 1.154410667 _0_ RTR  --- 39 tcp 1040 [0 0 0 0] ------- [0:0 1:0 30 1] [26 0] 0 0
r 1.154699833 _1_ MAC  --- 0 ACK 38 [0 1 0 0] 
s 1.154789667 _0_ MAC  --- 0 RTS 44 [24ce 1 0 0] 
r 1.155141833 _1_ MAC  --- 0 RTS 44 [24ce 1 0 0] 
s 1.155151833 _1_ MAC  --- 0 CTS 38 [2394 0 0 0] 
r 1.155456000 _0_ MAC  --- 0 CTS 38 [2394 0 0 0] 
s 1.155466000 _0_ MAC  --- 20 tcp 1098 [13a 1 0 800] ------- [0:0 1:0 30 1] [13 0] 0 0
r 1.164250167 _1_ MAC  --- 20 tcp 1040 [13a 1 0 800] ------- [0:0 1:0 30 1] [13 0] 1 0
s 1.164260167 _1_ MAC  --- 0 ACK 38 [0 0 0 0] 
r 1.164275167 _1_ RTR  --- 40 ack 40 [0 0 0 0] ------- [1:0 0:0 32 0] [13 0] 0 0
s 1.164275167 _1_ RTR  --- 40 ack 40 [0 0 0 0] ------- [1:0 0:0 30 0] [13 0] 0 0
r 1.164564333 _0_ MAC  --- 0 ACK 38 [0 0 0 0] 
s 1.164674333 _0_ MAC  --- 0 RTS 44 [24ce 1 0 0] 
r 1.165026500 _1_ MAC  --- 0 RTS 44 [24ce 1 0 0] 
s 1.165036500 _1_ MAC  --- 0 CTS 38 [2394 0 0 0] 
r 1.165340667 _0_ MAC  --- 0 CTS 38 [2394 0 0 0] 
s 1.165350667 _0_ MAC  --- 21 tcp 1098 [13a 1 0 800] ------- [0:0 1:0 30 1] [14 0] 0 0
r 1.174134833 _1_ MAC  --- 21 tcp 1040 [13a 1 0 800] ------- [0:0 1:0 30 1] [14 0] 1 0
s 1.174144833 _1_ MAC  --- 0 ACK 38 [0 0 0 0] 
r 1.174159833 _1_ RTR  --- 41 ack 40 [0 0 0 0] ------- [1:0 0:0 32 0] [14 0] 0 0
s 1.174159833 _1_ RTR  --- 41 ack 40 [0 0 0 0] ------- [1:0 0:0 30 0] [14 0] 0 0
r 1.174449000 _0_ MAC  --- 0 ACK 38 [0 0 0 0] 
s 1.174599000 _0_ MAC  --- 0 RTS 44 [24ce 1 0 0] 
r 1.174951167 _1_ MAC  --- 0 RTS 44 [24ce 1 0 0] 
s 1.174961167 _1_ MAC  --- 0 CTS 38 [2394 0 0 0] 
r 1.175265333 _0_ MAC  --- 0 CTS 38 [2394 0 0 0] 
s 1.175275333 _0_ MAC  --- 23 tcp 1098 [13a 1 0 800] ------- [0:0 1:0 30 1] [15 0] 0 0
r 1.184059500 _1_ MAC  --- 23 tcp 1040 [13a 1 0 800] ------- [0:0 1:0 30 1] [15 0] 1 0
s 1.184069500 _1_ MAC  --- 0 ACK 38 [0 0 0 0] 
r 1.184084500 _1_ RTR  --- 42 ack 40 [0 0 0 0] ------- [1:0 0:0 32 0] [15 0] 0 0
s 1.184084500 _1_ RTR  --- 42 ack 40 [0 0 0 0] ------- [1:0 0:0 30 0] [15 0] 0 0
r 1.184373667 _0_ MAC  --- 0 ACK 38 [0 0 0 0] 
s 1.184663667 _0_ MAC  --- 0 RTS 44 [24ce 1 0 0] 
r 1.185015833 _1_ MAC  --- 0 RTS 44 [24ce 1 0 0] 
s 1.185025833 _1_ MAC  --- 0 CTS 38 [2394 0 0 0] 
r 1.185330000 _0_ MAC  --- 0 CTS 38 [2394 0 0 0] 
s 1.185340000 _0_ MAC  --- 24 tcp 1098 [13a 1 0 800] ------- [0:0 1:0 30 1] [16 0] 0 0
r 1.194124167 _1_ MAC  --- 24 tcp 1040 [13a 1 0 800] ------- [0:0 1:0 30 1] [16 0] 1 0
s 1.194134167 _1_ MAC  --- 0 ACK 38 [0 0 0 0] 
r 1.194149167 _1_ RTR  --- 43 ack 40 [0 0 0 0] ------- [1:0 0:0 32 0] [16 0] 0 0
s 1.194149167 _1_ RTR  --- 43 ack 40 [0 0 0 0] ------- [1:0 0:0 30 0] [16 0] 0 0
r 1.194438333 _0_ MAC  --- 0 ACK 38 [0 0 0 0] 
s 1.194508167 _1_ MAC  --- 0 RTS 44 [58e 0 1 0] 
r 1.194860333 _0_ MAC  --- 0 RTS 44 [58e 0 1 0] 
s 1.194870333 _0_ MAC  --- 0 CTS 38 [454 1 0 0] 
r 1.195174500 _1_ MAC  --- 0 CTS 38 [454 1 0 0] 
s 1.195184500 _1_ MAC  --- 40 ack 98 [13a 0 1 800] ------- [1:0 0:0 30 0] [13 0] 0 0
r 1.195968667 _0_ MAC  --- 40 ack 40 [13a 0 1 800] ------- [1:0 0:0 30 0] [13 0] 1 0
s 1.195978667 _0_ MAC  --- 0 ACK 38 [0 1 0 0] 
r 1.195993667 _0_ RTR  --- 44 tcp 1040 [0 0 0 0] ------- [0:0 1:0 32 0] [27 0] 0 0
r 1.195993667 _0_ RTR  --- 45 tcp 1040 [0 0 0 0] ------- [0:0 1:0 32 0] [28 0] 0 0
s 1.195993667 _0_ RTR  --- 44 tcp 1040 [0 0 0 0] ------- [0:0 1:0 30 1] [27 0] 0 0
s 1.195993667 _0_ RTR  --- 45 tcp 1040 [0 0 0 0] ------- [0:0 1:0 30 1] [28 0] 0 0
r 1.196282833 _1_ MAC  --- 0 ACK 38 [0 1 0 0] 
s 1.196492833 _1_ MAC  --- 0 RTS 44 [58e 0 1 0] 
r 1.196845000 _0_ MAC  --- 0 RTS 44 [58e 0 1 0] 
s 1.196855000 _0_ MAC  --- 0 CTS 38 [454 1 0 0] 
r 1.197159167 _1_ MAC  --- 0 CTS 38 [454 1 0 0] 
s 1.197169167 _1_ MAC  --- 41 ack 98 [13a 0 1 800] ------- [1:0 0:0 30 0] [14 0] 0 0
r 1.197953333 _0_ MAC  --- 41 ack 40 [13a 0 1 800] ------- [1:0 0:0 30 0] [14 0] 1 0
s 1.197963333 _0_ MAC  --- 0 ACK 38 [0 1 0 0] 
r 1.197978333 _0_ RTR  --- 46 tcp 1040 [0 0 0 0] ------- [0:0 1:0 32 0] [29 0] 0 0
r 1.197978333 _0_ RTR  --- 47 tcp 1040 [0 0 0 0] ------- [0:0 1:0 32 0] [30 0] 0 0
s 1.197978333 _0_ RTR  --- 46 tcp 1040 [0 0 0 0] ------- [0:0 1:0 30 1] [29 0] 0 0
s 1.197978333 _0_ RTR  --- 47 tcp 1040 [0 0 0 0] ------- [0:0 1:0 30 1] [30 0] 0 0
r 1.198267500 _1_ MAC  --- 0 ACK 38 [0 1 0 0] 
s 1.198477333 _0_ MAC  --- 0 RTS 44 [24ce 1 0 0] 
r 1.198829500 _1_ MAC  --- 0 RTS 44 [24ce 1 0 0] 
s 1.198839500 _1_ MAC  --- 0 CTS 38 [2394 0 0 0] 
r 1.199143667 _0_ MAC  --- 0 CTS 38 [2394 0 0 0] 
s 1.199153667 _0_ MAC  --- 28 tcp 1098 [13a 1 0 800] ------- [0:0 1:0 30 1] [17 0] 0 0
r 1.207937833 _1_ MAC  --- 28 tcp 1040 [13a 1 0 800] ------- [0:0 1:0 30 1] [17 0] 1 0
s 1.207947833 _1_ MAC  --- 0 ACK 38 [0 0 0 0] 
r 1.207962833 _1_ RTR  --- 48 ack 40 [0 0 0 0] ------- [1:0 0:0 32 0] [17 0] 0 0
s 1.207962833 _1_ RTR  --- 48 ack 40 [0 0 0 0] ------- [1:0 0:0 30 0] [17 0] 0 0
r 1.208252000 _0_ MAC  --- 0 ACK 38 [0 0 0 0] 
s 1.208442000 _0_ MAC  --- 0 RTS 44 [24ce 1 0 0] 
r 1.208794167 _1_ MAC  --- 0 RTS 44 [24ce 1 0 0] 
s 1.208804167 _1_ MAC  --- 0 CTS 38 [2394 0 0 0] 
r 1.209108333 _0_ MAC  --- 0 CTS 38 [2394 0 0 0] 
s 1.209118333 _0_ MAC  --- 29 tcp 1098 [13a 1 0 800] ------- [0:0 1:0 30 1] [18 0] 0 0
r 1.217902500 _1_ MAC  --- 29 tcp 1040 [13a 1 0 800] ------- [0:0 1:0 30 1] [18 0] 1 0
s 1.217912500 _1_ MAC  --- 0 ACK 38 [0 0 0 0] 
r 1.217927500 _1_ RTR  --- 49 ack 40 [0 0 0 0] ------- [1:0 0:0 32 0] [18 0] 0 0
s 1.217927500 _1_ RTR  --- 49 ack 40 [0 0 0 0] ------- [1:0 0:0 30 0] [18 0] 0 0
r 1.218216667 _0_ MAC  --- 0 ACK 38 [0 0 0 0] 
s 1.218466500 _1_ MAC  --- 0 RTS 44 [58e 0 1 0] 
r 1.218818667 _0_ MAC  --- 0 RTS 44 [58e 0 1 0] 
s 1.218828667 _0_ MAC  --- 0 CTS 38 [454 1 0 0] 
r 1.219132833 _1_ MAC  --- 0 CTS 38 [454 1 0 0] 
s 1.219142833 _1_ MAC  --- 42 ack 98 [13a 0 1 800] ------- [1:0 0:0 30 0] [15 0] 0 0
r 1.219927000 _0_ MAC  --- 42 ack 40 [13a 0 1 800] ------- [1:0 0:0 30 0] [15 0] 1 0
s 1.219937000 _0_ MAC  --- 0 ACK 38 [0 1 0 0] 
r 1.219952000 _0_ RTR  --- 50 tcp 1040 [0 0 0 0] ------- [0:0 1:0 32 0] [31 0] 0 0
r 1.219952000 _0_ RTR  --- 51 tcp 1040 [0 0 0 0] ------- [0:0 1:0 32 0] [32 0] 0 0
s 1.219952000 _0_ RTR  --- 50 tcp 1040 [0 0 0 0] ------- [0:0 1:0 30 1] [31 0] 0 0
s 1.219952000 _0_ RTR  --- 51 tcp 1040 [0 0 0 0] ------- [0:0 1:0 30 1] [32 0] 0 0
r 1.220241167 _1_ MAC  --- 0 ACK 38 [0 1 0 0] 
s 1.220651167 _1_ MAC  --- 0 RTS 44 [58e 0 1 0] 
r 1.221003333 _0_ MAC  --- 0 RTS 44 [58e 0 1 0] 
s 1.221013333 _0_ MAC  --- 0 CTS 38 [454 1 0 0] 
r 1.221317500 _1_ MAC  --- 0 CTS 38 [454 1 0 0] 
s 1.221327500 _1_ MAC  --- 43 ack 98 [13a 0 1 800] ------- [1:0 0:0 30 0] [16 0] 0 0
r 1.222111667 _0_ MAC  --- 43 ack 40 [13a 0 1 800] ------- [1:0 0:0 30 0] [16 0] 1 0
s 1.222121667 _0_ MAC  --- 0 ACK 38 [0 1 0 0] 
r 1.222136667 _0_ RTR  --- 52 tcp 1040 [0 0 0 0] ------- [0:0 1:0 32 0] [33 0] 0 0
r 1.222136667 _0_ RTR  --- 53 tcp 1040 [0 0 0 0] ------- [0:0 1:0 32 0] [34 0] 0 0
s 1.222136667 _0_ RTR  --- 52 tcp 1040 [0 0 0 0] ------- [0:0 1:0 30 1] [33 0] 0 0
s 1.222136667 _0_ RTR  --- 53 tcp 1040 [0 0 0 0] ------- [0:0 1:0 30 1] [34 0] 0 0
r 1.222425833 _1_ MAC  --- 0 ACK 38 [0 1 0 0] 
s 1.222495667 _0_ MAC  --- 0 RTS 44 [24ce 1 0 0] 
r 1.222847833 _1_ MAC  --- 0 RTS 44 [24ce 1 0 0] 
s 1.222857833 _1_ MAC  --- 0 CTS 38 [2394 0 0 0] 
r 1.223162000 _0_ MAC  --- 0 CTS 38 [2394 0 0 0] 
s 1.223172000 _0_ MAC  --- 30 tcp 1098 [13a 1 0 800] ------- [0:0 1:0 30 1] [19 0] 0 0
r 1.231956167 _1_ MAC  --- 30 tcp 1040 [13a 1 0 800] ------- [0:0 1:0 30 1] [19 0] 1 0
s 1.231966167 _1_ MAC  --- 0 ACK 38 [0 0 0 0] 
r 1.231981167 _1_ RTR  --- 54 ack 40 [0 0 0 0] ------- [1:0 0:0 32 0] [19 0] 0 0
s 1.231981167 _1_ RTR  --- 54 ack 40 [0 0 0 0] ------- [1:0 0:0 30 0] [19 0] 0 0
r 1.232270333 _0_ MAC  --- 0 ACK 38 [0 0 0 0] 
s 1.232360333 _0_ MAC  --- 0 RTS 44 [24ce 1 0 0] 
r 1.232712500 _1_ MAC  --- 0 RTS 44 [24ce 1 0 0] 
s 1.232722500 _1_ MAC  --- 0 CTS 38 [2394 0 0 0] 
r 1.233026667 _0_ MAC  --- 0 CTS 38 [2394 0 0 0] 
s 1.233036667 _0_ MAC  --- 31 tcp 1098 [13a 1 0 800] ------- [0:0 1:0 30 1] [20 0] 0 0
r 1.241820833 _1_ MAC  --- 31 tcp 1040 [13a 1 0 800] ------- [0:0 1:0 30 1] [20 0] 1 0
s 1.241830833 _1_ MAC  --- 0 ACK 38 [0 0 0 0] 
r 1.241845833 _1_ RTR  --- 55 ack 40 [0 0 0 0] ------- [1:0 0:0 32 0] [20 0] 0 0
s 1.241845833 _1_ RTR  --- 55 ack 40 [0 0 0 0] ------- [1:0 0:0 30 0] [20 0] 0 0
r 1.242135000 _0_ MAC  --- 0 ACK 38 [0 0 0 0] 
s 1.242245000 _0_ MAC  --- 0 RTS 44 [24ce 1 0 0] 
r 1.242597167 _1_ MAC  --- 0 RTS 44 [24ce 1 0 0] 
s 1.242607167 _1_ MAC  --- 0 CTS 38 [2394 0 0 0] 
r 1.242911333 _0_ MAC  --- 0 CTS 38 [2394 0 0 0] 
s 1.242921333 _0_ MAC  --- 33 tcp 1098 [13a 1 0 800] ------- [0:0 1:0 30 1] [21 0] 0 0
r 1.251705500 _1_ MAC  --- 33 tcp 1040 [13a 1 0 800] ------- [0:0 1:0 30 1] [21 0] 1 0
s 1.251715500 _1_ MAC  --- 0 ACK 38 [0 0 0 0] 
r 1.251730500 _1_ RTR  --- 56 ack 40 [0 0 0 0] ------- [1:0 0:0 32 0] [21 0] 0 0
s 1.251730500 _1_ RTR  --- 56 ack 40 [0 0 0 0] ------- [1:0 0:0 30 0] [21 0] 0 0
r 1.252019667 _0_ MAC  --- 0 ACK 38 [0 0 0 0] 
s 1.252189500 _1_ MAC  --- 0 RTS 44 [58e 0 1 0] 
r 1.252541667 _0_ MAC  --- 0 RTS 44 [58e 0 1 0] 
s 1.252551667 _0_ MAC  --- 0 CTS 38 [454 1 0 0] 
r 1.252855833 _1_ MAC  --- 0 CTS 38 [454 1 0 0] 
s 1.252865833 _1_ MAC  --- 48 ack 98 [13a 0 1 800] ------- [1:0 0:0 30 0] [17 0] 0 0
r 1.253650000 _0_ MAC  --- 48 ack 40 [13a 0 1 800] ------- [1:0 0:0 30 0] [17 0] 1 0
s 1.253660000 _0_ MAC  --- 0 ACK 38 [0 1 0 0] 
r 1.253675000 _0_ RTR  --- 57 tcp 1040 [0 0 0 0] ------- [0:0 1:0 32 0] [35 0] 0 0
r 1.253675000 _0_ RTR  --- 58 tcp 1040 [0 0 0 0] ------- [0:0 1:0 32 0] [36 0] 0 0
s 1.253675000 _0_ RTR  --- 57 tcp 1040 [0 0 0 0] ------- [0:0 1:0 30 1] [35 0] 0 0