M 0.00000 0 (100.00, 100.00, 0.00), (100.00, 100.00), 2000.00
M 0.00000 1 (200.00, 100.00, 0.00), (250.00, 100.00), 2000.00
r 0.300000000 _0_ RTR  --- 0 tcp 40 [0 0 0 0] ------- [0:0 1:0 32 0] [0 0] 0 0
s 0.300000000 _0_ RTR  --- 0 AODV 48 [0 0 0 0] ------- [0:255 -1:255 30 0] [0x2 1 1 [1 0] [0 4]] (REQUEST)
s 0.300575000 _0_ MAC  --- 0 AODV 106 [0 ffffffff 0 800] ------- [0:255 -1:255 30 0] [0x2 1 1 [1 0] [0 4]] (REQUEST)
r 0.301423500 _1_ MAC  --- 0 AODV 48 [0 ffffffff 0 800] ------- [0:255 -1:255 30 0] [0x2 1 1 [1 0] [0 4]] (REQUEST)
r 0.301448500 _1_ RTR  --- 0 AODV 48 [0 ffffffff 0 800] ------- [0:255 -1:255 30 0] [0x2 1 1 [1 0] [0 4]] (REQUEST)
s 0.301448500 _1_ RTR  --- 0 AODV 44 [0 0 0 0] ------- [1:255 0:255 30 0] [0x4 1 [1 4] 10.000000] (REPLY)
s 0.301743500 _1_ MAC  --- 0 ARP 86 [0 ffffffff 1 806] ------- [REQUEST 1/1 0/0]
r 0.302432000 _0_ MAC  --- 0 ARP 28 [0 ffffffff 1 806] ------- [REQUEST 1/1 0/0]
s 0.303087000 _0_ MAC  --- 0 RTS 44 [52e 1 0 0] 
r 0.303439500 _1_ MAC  --- 0 RTS 44 [52e 1 0 0] 
s 0.303449500 _1_ MAC  --- 0 CTS 38 [3f4 0 0 0] 
r 0.303754000 _0_ MAC  --- 0 CTS 38 [3f4 0 0 0] 
s 0.303764000 _0_ MAC  --- 0 ARP 86 [13a 1 0 806] ------- [REPLY 0/0 1/1]
r 0.304452500 _1_ MAC  --- 0 ARP 28 [13a 1 0 806] ------- [REPLY 0/0 1/1]
s 0.304462500 _1_ MAC  --- 0 ACK 38 [0 0 0 0] 
r 0.304767000 _0_ MAC  --- 0 ACK 38 [0 0 0 0] 
s 0.304836500 _1_ MAC  --- 0 RTS 44 [5ae 0 1 0] 
r 0.305189000 _0_ MAC  --- 0 RTS 44 [5ae 0 1 0] 
s 0.305199000 _0_ MAC  --- 0 CTS 38 [474 1 0 0] 
r 0.305503500 _1_ MAC  --- 0 CTS 38 [474 1 0 0] 
s 0.305513500 _1_ MAC  --- 0 AODV 102 [13a 0 1 800] ------- [1:255 0:255 30 0] [0x4 1 [1 4] 10.000000] (REPLY)
r 0.306330000 _0_ MAC  --- 0 AODV 44 [13a 0 1 800] ------- [1:255 0:255 30 0] [0x4 1 [1 4] 10.000000] (REPLY)
s 0.306340000 _0_ MAC  --- 0 ACK 38 [0 1 0 0] 
r 0.306355000 _0_ RTR  --- 0 AODV 44 [13a 0 1 800] ------- [1:255 0:255 30 0] [0x4 1 [1 4] 10.000000] (REPLY)
s 0.306355000 _0_ RTR  --- 0 tcp 40 [0 0 0 0] ------- [0:0 1:0 30 1] [0 0] 0 0
r 0.306644500 _1_ MAC  --- 0 ACK 38 [0 1 0 0] 
s 0.306794000 _0_ MAC  --- 0 RTS 44 [58e 1 0 0] 
r 0.307146500 _1_ MAC  --- 0 RTS 44 [58e 1 0 0] 
s 0.307156500 _1_ MAC  --- 0 CTS 38 [454 0 0 0] 
r 0.307461000 _0_ MAC  --- 0 CTS 38 [454 0 0 0] 
s 0.307471000 _0_ MAC  --- 0 tcp 98 [13a 1 0 800] ------- [0:0 1:0 30 1] [0 0] 0 0
r 0.308255500 _1_ MAC  --- 0 tcp 40 [13a 1 0 800] ------- [0:0 1:0 30 1] [0 0] 1 0
s 0.308265500 _1_ MAC  --- 0 ACK 38 [0 0 0 0] 
r 0.308280500 _1_ RTR  --- 1 ack 40 [0 0 0 0] ------- [1:0 0:0 32 0] [0 0] 0 0
s 0.308280500 _1_ RTR  --- 1 ack 40 [0 0 0 0] ------- [1:0 0:0 30 0] [0 0] 0 0
r 0.308570000 _0_ MAC  --- 0 ACK 38 [0 0 0 0] 
s 0.308779500 _1_ MAC  --- 0 RTS 44 [58e 0 1 0] 
r 0.309132000 _0_ MAC  --- 0 RTS 44 [58e 0 1 0] 
s 0.309142000 _0_ MAC  --- 0 CTS 38 [454 1 0 0] 
r 0.309446500 _1_ MAC  --- 0 CTS 38 [454 1 0 0] 
s 0.309456500 _1_ MAC  --- 1 ack 98 [13a 0 1 800] ------- [1:0 0:0 30 0] [0 0] 0 0
r 0.310241000 _0_ MAC  --- 1 ack 40 [13a 0 1 800] ------- [1:0 0:0 30 0] [0 0] 1 0
s 0.310251000 _0_ MAC  --- 0 ACK 38 [0 1 0 0] 
r 0.310266000 _0_ RTR  --- 2 tcp 1040 [0 0 0 0] ------- [0:0 1:0 32 0] [1 0] 0 0
r 0.310266000 _0_ RTR  --- 3 tcp 1040 [0 0 0 0] ------- [0:0 1:0 32 0] [2 0] 0 0
s 0.310266000 _0_ RTR  --- 2 tcp 1040 [0 0 0 0] ------- [0:0 1:0 30 1] [1 0] 0 0
s 0.310266000 _0_ RTR  --- 3 tcp 1040 [0 0 0 0] ------- [0:0 1:0 30 1] [2 0] 0 0
r 0.310555500 _1_ MAC  --- 0 ACK 38 [0 1 0 0] 
s 0.310645000 _0_ MAC  --- 0 RTS 44 [24ce 1 0 0] 
r 0.310997500 _1_ MAC  --- 0 RTS 44 [24ce 1 0 0] 
s 0.311007500 _1_ MAC  --- 0 CTS 38 [2394 0 0 0] 
r 0.311312000 _0_ MAC  --- 0 CTS 38 [2394 0 0 0] 
s 0.311322000 _0_ MAC  --- 2 tcp 1098 [13a 1 0 800] ------- [0:0 1:0 30 1] [1 0] 0 0
r 0.320106500 _1_ MAC  --- 2 tcp 1040 [13a 1 0 800] ------- [0:0 1:0 30 1] [1 0] 1 0
s 0.320116500 _1_ MAC  --- 0 ACK 38 [0 0 0 0] 
r 0.320131500 _1_ RTR  --- 4 ack 40 [0 0 0 0] ------- [1:0 0:0 32 0] [1 0] 0 0
s 0.320131500 _1_ RTR  --- 4 ack 40 [0 0 0 0] ------- [1:0 0:0 30 0] [1 0] 0 0
r 0.320421000 _0_ MAC  --- 0 ACK 38 [0 0 0 0] 
s 0.320891000 _0_ MAC  --- 0 RTS 44 [24ce 1 0 0] 
r 0.321243500 _1_ MAC  --- 0 RTS 44 [24ce 1 0 0] 
s 0.321253500 _1_ MAC  --- 0 CTS 38 [2394 0 0 0] 
r 0.321558000 _0_ MAC  --- 0 CTS 38 [2394 0 0 0] 
s 0.321568000 _0_ MAC  --- 3 tcp 1098 [13a 1 0 800] ------- [0:0 1:0 30 1] [2 0] 0 0
r 0.330352500 _1_ MAC  --- 3 tcp 1040 [13a 1 0 800] ------- [0:0 1:0 30 1] [2 0] 1 0
s 0.330362500 _1_ MAC  --- 0 ACK 38 [0 0 0 0] 
r 0.330377500 _1_ RTR  --- 5 ack 40 [0 0 0 0] ------- [1:0 0:0 32 0] [2 0] 0 0
s 0.330377500 _1_ RTR  --- 5 ack 40 [0 0 0 0] ------- [1:0 0:0 30 0] [2 0] 0 0
r 0.330667000 _0_ MAC  --- 0 ACK 38 [0 0 0 0] 
s 0.330876500 _1_ MAC  --- 0 RTS 44 [58e 0 1 0] 
r 0.331229000 _0_ MAC  --- 0 RTS 44 [58e 0 1 0] 
s 0.331239000 _0_ MAC  --- 0 CTS 38 [454 1 0 0] 
r 0.331543500 _1_ MAC  --- 0 CTS 38 [454 1 0 0] 
s 0.331553500 _1_ MAC  --- 4 ack 98 [13a 0 1 800] ------- [1:0 0:0 30 0] [1 0] 0 0
r 0.332338000 _0_ MAC  --- 4 ack 40 [13a 0 1 800] ------- [1:0 0:0 30 0] [1 0] 1 0
s 0.332348000 _0_ MAC  --- 0 ACK 38 [0 1 0 0] 
r 0.332363000 _0_ RTR  --- 6 tcp 1040 [0 0 0 0] ------- [0:0 1:0 32 0] [3 0] 0 0
r 0.332363000 _0_ RTR  --- 7 tcp 1040 [0 0 0 0] ------- [0:0 1:0 32 0] [4 0] 0 0
s 0.332363000 _0_ RTR  --- 6 tcp 1040 [0 0 0 0] ------- [0:0 1:0 30 1] [3 0] 0 0
s 0.332363000 _0_ RTR  --- 7 tcp 1040 [0 0 0 0] ------- [0:0 1:0 30 1] [4 0] 0 0
r 0.332652500 _1_ MAC  --- 0 ACK 38 [0 1 0 0] 
s 0.332802000 _0_ MAC  --- 0 RTS 44 [24ce 1 0 0] 
r 0.333154500 _1_ MAC  --- 0 RTS 44 [24ce 1 0 0] 
s 0.333164500 _1_ MAC  --- 0 CTS 38 [2394 0 0 0] 
r 0.333469000 _0_ MAC  --- 0 CTS 38 [2394 0 0 0] 
s 0.333479000 _0_ MAC  --- 6 tcp 1098 [13a 1 0 800] ------- [0:0 1:0 30 1] [3 0] 0 0
r 0.342263500 _1_ MAC  --- 6 tcp 1040 [13a 1 0 800] ------- [0:0 1:0 30 1] [3 0] 1 0
s 0.342273500 _1_ MAC  --- 0 ACK 38 [0 0 0 0] 
r 0.342288500 _1_ RTR  --- 8 ack 40 [0 0 0 0] ------- [1:0 0:0 32 0] [3 0] 0 0
s 0.342288500 _1_ RTR  --- 8 ack 40 [0 0 0 0] ------- [1:0 0:0 30 0] [3 0] 0 0
r 0.342578000 _0_ MAC  --- 0 ACK 38 [0 0 0 0] 
s 0.342788000 _0_ MAC  --- 0 RTS 44 [24ce 1 0 0] 
r 0.343140500 _1_ MAC  --- 0 RTS 44 [24ce 1 0 0] 
s 0.343150500 _1_ MAC  --- 0 CTS 38 [2394 0 0 0] 
r 0.343455000 _0_ MAC  --- 0 CTS 38 [2394 0 0 0] 
s 0.343465000 _0_ MAC  --- 7 tcp 1098 [13a 1 0 800] ------- [0:0 1:0 30 1] [4 0] 0 0
r 0.352249500 _1_ MAC  --- 7 tcp 1040 [13a 1 0 800] ------- [0:0 1:0 30 1] [4 0] 1 0
s 0.352259500 _1_ MAC  --- 0 ACK 38 [0 0 0 0] 
r 0.352274500 _1_ RTR  --- 9 ack 40 [0 0 0 0] ------- [1:0 0:0 32 0] [4 0] 0 0
s 0.352274500 _1_ RTR  --- 9 ack 40 [0 0 0 0] ------- [1:0 0:0 30 0] [4 0] 0 0
r 0.352564000 _0_ MAC  --- 0 ACK 38 [0 0 0 0] 
s 0.352953500 _1_ MAC  --- 0 RTS 44 [58e 0 1 0] 
r 0.353306000 _0_ MAC  --- 0 RTS 44 [58e 0 1 0] 
s 0.353316000 _0_ MAC  --- 0 CTS 38 [454 1 0 0] 
r 0.353620500 _1_ MAC  --- 0 CTS 38 [454 1 0 0] 
s 0.353630500 _1_ MAC  --- 5 ack 98 [13a 0 1 800] ------- [1:0 0:0 30 0] [2 0] 0 0
r 0.354415000 _0_ MAC  --- 5 ack 40 [13a 0 1 800] ------- [1:0 0:0 30 0] [2 0] 1 0
s 0.354425000 _0_ MAC  --- 0 ACK 38 [0 1 0 0] 
r 0.354440000 _0_ RTR  --- 10 tcp 1040 [0 0 0 0] ------- [0:0 1:0 32 0] [5 0] 0 0
r 0.354440000 _0_ RTR  --- 11 tcp 1040 [0 0 0 0] ------- [0:0 1:0 32 0] [6 0] 0 0
s 0.354440000 _0_ RTR  --- 10 tcp 1040 [0 0 0 0] ------- [0:0 1:0 30 1] [5 0] 0 0
s 0.354440000 _0_ RTR  --- 11 tcp 1040 [0 0 0 0] ------- [0:0 1:0 30 1] [6 0] 0 0
r 0.354729500 _1_ MAC  --- 0 ACK 38 [0 1 0 0] 
s 0.354979000 _0_ MAC  --- 0 RTS 44 [24ce 1 0 0] 
r 0.355331500 _1_ MAC  --- 0 RTS 44 [24ce 1 0 0] 
s 0.355341500 _1_ MAC  --- 0 CTS 38 [2394 0 0 0] 
r 0.355646000 _0_ MAC  --- 0 CTS 38 [2394 0 0 0] 
s 0.355656000 _0_ MAC  --- 10 tcp 1098 [13a 1 0 800] ------- [0:0 1:0 30 1] [5 0] 0 0
r 0.364440500 _1_ MAC  --- 10 tcp 1040 [13a 1 0 800] ------- [0:0 1:0 30 1] [5 0] 1 0
s 0.364450500 _1_ MAC  --- 0 ACK 38 [0 0 0 0] 
r 0.364465500 _1_ RTR  --- 12 ack 40 [0 0 0 0] ------- [1:0 0:0 32 0] [5 0] 0 0
s 0.364465500 _1_ RTR  --- 12 ack 40 [0 0 0 0] ------- [1:0 0:0 30 0] [5 0] 0 0
r 0.364755000 _0_ MAC  --- 0 ACK 38 [0 0 0 0] 
s 0.365064500 _1_ MAC  --- 0 RTS 44 [58e 0 1 0] 
r 0.365417000 _0_ MAC  --- 0 RTS 44 [58e 0 1 0] 
s 0.365427000 _0_ MAC  --- 0 CTS 38 [454 1 0 0] 
r 0.365731500 _1_ MAC  --- 0 CTS 38 [454 1 0 0] 
s 0.365741500 _1_ MAC  --- 8 ack 98 [13a 0 1 800] ------- [1:0 0:0 30 0] [3 0] 0 0
r 0.366526000 _0_ MAC  --- 8 ack 40 [13a 0 1 800] ------- [1:0 0:0 30 0] [3 0] 1 0
s 0.366536000 _0_ MAC  --- 0 ACK 38 [0 1 0 0] 
r 0.366551000 _0_ RTR  --- 13 tcp 1040 [0 0 0 0] ------- [0:0 1:0 32 0] [7 0] 0 0
r 0.366551000 _0_ RTR  --- 14 tcp 1040 [0 0 0 0] ------- [0:0 1:0 32 0] [8 0] 0 0
s 0.366551000 _0_ RTR  --- 13 tcp 1040 [0 0 0 0] ------- [0:0 1:0 30 1] [7 0] 0 0
s 0.366551000 _0_ RTR  --- 14 tcp 1040 [0 0 0 0] ------- [0:0 1:0 30 1] [8 0] 0 0
r 0.366840500 _1_ MAC  --- 0 ACK 38 [0 1 0 0] 
s 0.367130500 _1_ MAC  --- 0 RTS 44 [58e 0 1 0] 
r 0.367483000 _0_ MAC  --- 0 RTS 44 [58e 0 1 0] 
s 0.367493000 _0_ MAC  --- 0 CTS 38 [454 1 0 0] 
r 0.367797500 _1_ MAC  --- 0 CTS 38 [454 1 0 0] 
s 0.367807500 _1_ MAC  --- 9 ack 98 [13a 0 1 800] ------- [1:0 0:0 30 0] [4 0] 0 0
r 0.368592000 _0_ MAC  --- 9 ack 40 [13a 0 1 800] ------- [1:0 0:0 30 0] [4 0] 1 0
s 0.368602000 _0_ MAC  --- 0 ACK 38 [0 1 0 0] 
r 0.368617000 _0_ RTR  --- 15 tcp 1040 [0 0 0 0] ------- [0:0 1:0 32 0] [9 0] 0 0
r 0.368617000 _0_ RTR  --- 16 tcp 1040 [0 0 0 0] ------- [0:0 1:0 32 0] [10 0] 0 0
s 0.368617000 _0_ RTR  --- 15 tcp 1040 [0 0 0 0] ------- [0:0 1:0 30 1] [9 0] 0 0
s 0.368617000 _0_ RTR  --- 16 tcp 1040 [0 0 0 0] ------- [0:0 1:0 30 1] [10 0] 0 0
r 0.368906500 _1_ MAC  --- 0 ACK 38 [0 1 0 0] 
s 0.368956500 _1_ MAC  --- 0 RTS 44 [58e 0 1 0] 
r 0.369309000 _0_ MAC  --- 0 RTS 44 [58e 0 1 0] 
s 0.369319000 _0_ MAC  --- 0 CTS 38 [454 1 0 0] 
r 0.369623500 _1_ MAC  --- 0 CTS 38 [454 1 0 0] 
s 0.369633500 _1_ MAC  --- 12 ack 98 [13a 0 1 800] ------- [1:0 0:0 30 0] [5 0] 0 0
r 0.370418000 _0_ MAC  --- 12 ack 40 [13a 0 1 800] ------- [1:0 0:0 30 0] [5 0] 1 0
s 0.370428000 _0_ MAC  --- 0 ACK 38 [0 1 0 0] 
r 0.370443000 _0_ RTR  --- 17 tcp 1040 [0 0 0 0] ------- [0:0 1:0 32 0] [11 0] 0 0
r 0.370443000 _0_ RTR  --- 18 tcp 1040 [0 0 0 0] ------- [0:0 1:0 32 0] [12 0] 0 0
s 0.370443000 _0_ RTR  --- 17 tcp 1040 [0 0 0 0] ------- [0:0 1:0 30 1] [11 0] 0 0
s 0.370443000 _0_ RTR  --- 18 tcp 1040 [0 0 0 0] ------- [0:0 1:0 30 1] [12 0] 0 0
r 0.370732500 _1_ MAC  --- 0 ACK 38 [0 1 0 0] 
s 0.370802000 _0_ MAC  --- 0 RTS 44 [24ce 1 0 0] 
r 0.371154500 _1_ MAC  --- 0 RTS 44 [24ce 1 0 0] 
s 0.371164500 _1_ MAC  --- 0 CTS 38 [2394 0 0 0] 
r 0.371469000 _0_ MAC  --- 0 CTS 38 [2394 0 0 0] 
s 0.371479000 _0_ MAC  --- 11 tcp 1098 [13a 1 0 800] ------- [0:0 1:0 30 1] [6 0] 0 0
r 0.380263500 _1_ MAC  --- 11 tcp 1040 [13a 1 0 800] ------- [0:0 1:0 30 1] [6 0] 1 0
s 0.380273500 _1_ MAC  --- 0 ACK 38 [0 0 0 0] 
r 0.380288500 _1_ RTR  --- 19 ack 40 [0 0 0 0] ------- [1:0 0:0 32 0] [6 0] 0 0
s 0.380288500 _1_ RTR  --- 19 ack 40 [0 0 0 0] ------- [1:0 0:0 30 0] [6 0] 0 0
r 0.380578000 _0_ MAC  --- 0 ACK 38 [0 0 0 0] 
s 0.380747500 _1_ MAC  --- 0 RTS 44 [58e 0 1 0] 
r 0.381100000 _0_ MAC  --- 0 RTS 44 [58e 0 1 0] 
s 0.381110000 _0_ MAC  --- 0 CTS 38 [454 1 0 0] 
r 0.381414500 _1_ MAC  --- 0 CTS 38 [454 1 0 0] 
s 0.381424500 _1_ MAC  --- 19 ack 98 [13a 0 1 800] ------- [1:0 0:0 30 0] [6 0] 0 0
r 0.382209000 _0_ MAC  --- 19 ack 40 [13a 0 1 800] ------- [1:0 0:0 30 0] [6 0] 1 0
s 0.382219000 _0_ MAC  --- 0 ACK 38 [0 1 0 0] 
r 0.382234000 _0_ RTR  --- 20 tcp 1040 [0 0 0 0] ------- [0:0 1:0 32 0] [13 0] 0 0
r 0.382234000 _0_ RTR  --- 21 tcp 1040 [0 0 0 0] ------- [0:0 1:0 32 0] [14 0] 0 0
s 0.382234000 _0_ RTR  --- 20 tcp 1040 [0 0 0 0] ------- [0:0 1:0 30 1] [13 0] 0 0
s 0.382234000 _0_ RTR  --- 21 tcp 1040 [0 0 0 0] ------- [0:0 1:0 30 1] [14 0] 0 0
r 0.382523500 _1_ MAC  --- 0 ACK 38 [0 1 0 0] 
s 0.382993000 _0_ MAC  --- 0 RTS 44 [24ce 1 0 0] 
r 0.383345500 _1_ MAC  --- 0 RTS 44 [24ce 1 0 0] 
s 0.383355500 _1_ MAC  --- 0 CTS 38 [2394 0 0 0] 
r 0.383660000 _0_ MAC  --- 0 CTS 38 [2394 0 0 0] 
s 0.383670000 _0_ MAC  --- 13 tcp 1098 [13a 1 0 800] ------- [0:0 1:0 30 1] [7 0] 0 0
r 0.392454500 _1_ MAC  --- 13 tcp 1040 [13a 1 0 800] ------- [0:0 1:0 30 1] [7 0] 1 0
s 0.392464500 _1_ MAC  --- 0 ACK 38 [0 0 0 0] 
r 0.392479500 _1_ RTR  --- 22 ack 40 [0 0 0 0] ------- [1:0 0:0 32 0] [7 0] 0 0
s 0.392479500 _1_ RTR  --- 22 ack 40 [0 0 0 0] ------- [1:0 0:0 30 0] [7 0] 0 0
r 0.392769000 _0_ MAC  --- 0 ACK 38 [0 0 0 0] 
s 0.392958500 _1_ MAC  --- 0 RTS 44 [58e 0 1 0] 
r 0.393311000 _0_ MAC  --- 0 RTS 44 [58e 0 1 0] 
s 0.393321000 _0_ MAC  --- 0 CTS 38 [454 1 0 0] 
r 0.393625500 _1_ MAC  --- 0 CTS 38 [454 1 0 0] 
s 0.393635500 _1_ MAC  --- 22 ack 98 [13a 0 1 800] ------- [1:0 0:0 30 0] [7 0] 0 0
r 0.394420000 _0_ MAC  --- 22 ack 40 [13a 0 1 800] ------- [1:0 0:0 30 0] [7 0] 1 0
s 0.394430000 _0_ MAC  --- 0 ACK 38 [0 1 0 0] 
r 0.394445000 _0_ RTR  --- 23 tcp 1040 [0 0 0 0] ------- [0:0 1:0 32 0] [15 0] 0 0
r 0.394445000 _0_ RTR  --- 24 tcp 1040 [0 0 0 0] ------- [0:0 1:0 32 0] [16 0] 0 0
s 0.394445000 _0_ RTR  --- 23 tcp 1040 [0 0 0 0] ------- [0:0 1:0 30 1] [15 0] 0 0
s 0.394445000 _0_ RTR  --- 24 tcp 1040 [0 0 0 0] ------- [0:0 1:0 30 1] [16 0] 0 0
r 0.394734500 _1_ MAC  --- 0 ACK 38 [0 1 0 0] 
s 0.395184000 _0_ MAC  --- 0 RTS 44 [24ce 1 0 0] 
r 0.395536500 _1_ MAC  --- 0 RTS 44 [24ce 1 0 0] 
s 0.395546500 _1_ MAC  --- 0 CTS 38 [2394 0 0 0] 
r 0.395851000 _0_ MAC  --- 0 CTS 38 [2394 0 0 0] 
s 0.395861000 _0_ MAC  --- 14 tcp 1098 [13a 1 0 800] ------- [0:0 1:0 30 1] [8 0] 0 0
r 0.404645500 _1_ MAC  --- 14 tcp 1040 [13a 1 0 800] ------- [0:0 1:0 30 1] [8 0] 1 0
s 0.404655500 _1_ MAC  --- 0 ACK 38 [0 0 0 0] 
r 0.404670500 _1_ RTR  --- 25 ack 40 [0 0 0 0] ------- [1:0 0:0 32 0] [8 0] 0 0
s 0.404670500 _1_ RTR  --- 25 ack 40 [0 0 0 0] ------- [1:0 0:0 30 0] [8 0] 0 0
r 0.404960000 _0_ MAC  --- 0 ACK 38 [0 0 0 0] 
s 0.405030000 _0_ MAC  --- 0 RTS 44 [24ce 1 0 0] 
r 0.405382500 _1_ MAC  --- 0 RTS 44 [24ce 1 0 0] 
s 0.405392500 _1_ MAC  --- 0 CTS 38 [2394 0 0 0] 
r 0.405697000 _0_ MAC  --- 0 CTS 38 [2394 0 0 0] 
s 0.405707000 _0_ MAC  --- 15 tcp 1098 [13a 1 0 800] ------- [0:0 1:0 30 1] [9 0] 0 0
r 0.414491500 _1_ MAC  --- 15 tcp 1040 [13a 1 0 800] ------- [0:0 1:0 30 1] [9 0] 1 0
s 0.414501500 _1_ MAC  --- 0 ACK 38 [0 0 0 0] 
r 0.414516500 _1_ RTR  --- 26 ack 40 [0 0 0 0] ------- [1:0 0:0 32 0] [9 0] 0 0
s 0.414516500 _1_ RTR  --- 26 ack 40 [0 0 0 0] ------- [1:0 0:0 30 0] [9 0] 0 0
r 0.414806000 _0_ MAC  --- 0 ACK 38 [0 0 0 0] 
s 0.414896000 _0_ MAC  --- 0 RTS 44 [24ce 1 0 0] 
r 0.415248500 _1_ MAC  --- 0 RTS 44 [24ce 1 0 0] 
s 0.415258500 _1_ MAC  --- 0 CTS 38 [2394 0 0 0] 
r 0.415563000 _0_ MAC  --- 0 CTS 38 [2394 0 0 0] 
s 0.415573000 _0_ MAC  --- 16 tcp 1098 [13a 1 0 800] ------- [0:0 1:0 30 1] [10 0] 0 0
r 0.424357500 _1_ MAC  --- 16 tcp 1040 [13a 1 0 800] ------- [0:0 1:0 30 1] [10 0] 1 0
s 0.424367500 _1_ MAC  --- 0 ACK 38 [0 0 0 0] 
r 0.424382500 _1_ RTR  --- 27 ack 40 [0 0 0 0] ------- [1:0 0:0 32 0] [10 0] 0 0
s 0.424382500 _1_ RTR  --- 27 ack 40 [0 0 0 0] ------- [1:0 0:0 30 0] [10 0] 0 0
r 0.424672000 _0_ MAC  --- 0 ACK 38 [0 0 0 0] 
s 0.424821500 _1_ MAC  --- 0 RTS 44 [58e 0 1 0] 
r 0.425174000 _0_ MAC  --- 0 RTS 44 [58e 0 1 0] 
s 0.425184000 _0_ MAC  --- 0 CTS 38 [454 1 0 0] 
r 0.425488500 _1_ MAC  --- 0 CTS 38 [454 1 0 0] 
s 0.425498500 _1_ MAC  --- 25 ack 98 [13a 0 1 800] ------- [1:0 0:0 30 0] [8 0] 0 0
r 0.426283000 _0_ MAC  --- 25 ack 40 [13a 0 1 800] ------- [1:0 0:0 30 0] [8 0] 1 0
s 0.426293000 _0_ MAC  --- 0 ACK 38 [0 1 0 0] 
r 0.426308000 _0_ RTR  --- 28 tcp 1040 [0 0 0 0] ------- [0:0 1:0 32 0] [17 0] 0 0
r 0.426308000 _0_ RTR  --- 29 tcp 1040 [0 0 0 0] ------- [0:0 1:0 32 0] [18 0] 0 0
s 0.426308000 _0_ RTR  --- 28 tcp 1040 [0 0 0 0] ------- [0:0 1:0 30 1] [17 0] 0 0
s 0.426308000 _0_ RTR  --- 29 tcp 1040 [0 0 0 0] ------- [0:0 1:0 30 1] [18 0] 0 0
r 0.426597500 _1_ MAC  --- 0 ACK 38 [0 1 0 0] 
s 0.427087500 _1_ MAC  --- 0 RTS 44 [58e 0 1 0] 
r 0.427440000 _0_ MAC  --- 0 RTS 44 [58e 0 1 0] 
s 0.427450000 _0_ MAC  --- 0 CTS 38 [454 1 0 0] 
r 0.427754500 _1_ MAC  --- 0 CTS 38 [454 1 0 0] 
s 0.427764500 _1_ MAC  --- 26 ack 98 [13a 0 1 800] ------- [1:0 0:0 30 0] [9 0] 0 0
r 0.428549000 _0_ MAC  --- 26 ack 40 [13a 0 1 800] ------- [1:0 0:0 30 0] [9 0] 1 0
s 0.428559000 _0_ MAC  --- 0 ACK 38 [0 1 0 0] 
r 0.428574000 _0_ RTR  --- 30 tcp 1040 [0 0 0 0] ------- [0:0 1:0 32 0] [19 0] 0 0
r 0.428574000 _0_ RTR  --- 31 tcp 1040 [0 0 0 0] ------- [0:0 1:0 32 0] [20 0] 0 0
s 0.428574000 _0_ RTR  --- 30 tcp 1040 [0 0 0 0] ------- [0:0 1:0 30 1] [19 0] 0 0
s 0.428574000 _0_ RTR  --- 31 tcp 1040 [0 0 0 0] ------- [0:0 1:0 30 1] [20 0] 0 0
r 0.428863500 _1_ MAC  --- 0 ACK 38 [0 1 0 0] 
s 0.428933000 _0_ MAC  --- 0 RTS 44 [24ce 1 0 0] 
r 0.429285500 _1_ MAC  --- 0 RTS 44 [24ce 1 0 0] 
s 0.429295500 _1_ MAC  --- 0 CTS 38 [2394 0 0 0] 
r 0.429600000 _0_ MAC  --- 0 CTS 38 [2394 0 0 0] 
s 0.429610000 _0_ MAC  --- 17 tcp 1098 [13a 1 0 800] ------- [0:0 1:0 30 1] [11 0] 0 0
r 0.438394500 _1_ MAC  --- 17 tcp 1040 [13a 1 0 800] ------- [0:0 1:0 30 1] [11 0] 1 0
s 0.438404500 _1_ MAC  --- 0 ACK 38 [0 0 0 0] 
r 0.438419500 _1_ RTR  --- 32 ack 40 [0 0 0 0] ------- [1:0 0:0 32 0] [11 0] 0 0
s 0.438419500 _1_ RTR  --- 32 ack 40 [0 0 0 0] ------- [1:0 0:0 30 0] [11 0] 0 0
r 0.438709000 _0_ MAC  --- 0 ACK 38 [0 0 0 0] 
s 0.438878500 _1_ MAC  --- 0 RTS 44 [58e 0 1 0] 
r 0.439231000 _0_ MAC  --- 0 RTS 44 [58e 0 1 0] 
s 0.439241000 _0_ MAC  --- 0 CTS 38 [454 1 0 0] 
r 0.439545500 _1_ MAC  --- 0 CTS 38 [454 1 0 0] 
s 0.439555500 _1_ MAC  --- 27 ack 98 [13a 0 1 800] ------- [1:0 0:0 30 0] [10 0] 0 0
r 0.440340000 _0_ MAC  --- 27 ack 40 [13a 0 1 800] ------- [1:0 0:0 30 0] [10 0] 1 0
s 0.440350000 _0_ MAC  --- 0 ACK 38 [0 1 0 0] 
r 0.440365000 _0_ RTR  --- 33 tcp 1040 [0 0 0 0] ------- [0:0 1:0 32 0] [21 0] 0 0
r 0.440365000 _0_ RTR  --- 34 tcp 1040 [0 0 0 0] ------- [0:0 1:0 32 0] [22 0] 0 0
s 0.440365000 _0_ RTR  --- 33 tcp 1040 [0 0 0 0] ------- [0:0 1:0 30 1] [21 0] 0 0
s 0.440365000 _0_ RTR  --- 34 tcp 1040 [0 0 0 0] ------- [0:0 1:0 30 1] [22 0] 0 0
r 0.440654500 _1_ MAC  --- 0 ACK 38 [0 1 0 0] 
s 0.440904000 _0_ MAC  --- 0 RTS 44 [24ce 1 0 0] 
r 0.441256500 _1_ MAC  --- 0 RTS 44 [24ce 1 0 0] 
s 0.441266500 _1_ MAC  --- 0 CTS 38 [2394 0 0 0] 
r 0.441571000 _0_ MAC  --- 0 CTS 38 [2394 0 0 0] 
s 0.441581000 _0_ MAC  --- 18 tcp 1098 [13a 1 0 800] ------- [0:0 1:0 30 1] [12 0] 0 0
r 0.450365500 _1_ MAC  --- 18 tcp 1040 [13a 1 0 800] ------- [0:0 1:0 30 1] [12 0] 1 0
s 0.450375500 _1_ MAC  --- 0 ACK 38 [0 0 0 0] 
r 0.450390500 _1_ RTR  --- 35 ack 40 [0 0 0 0] ------- [1:0 0:0 32 0] [12 0] 0 0
s 0.450390500 _1_ RTR  --- 35 ack 40 [0 0 0 0] ------- [1:0 0:0 30 0] [12 0] 0 0
r 0.450680000 _0_ MAC  --- 0 ACK 38 [0 0 0 0] 
s 0.450929500 _1_ MAC  --- 0 RTS 44 [58e 0 1 0] 
r 0.451282000 _0_ MAC  --- 0 RTS 44 [58e 0 1 0] 
s 0.451292000 _0_ MAC  --- 0 CTS 38 [454 1 0 0] 
r 0.451596500 _1_ MAC  --- 0 CTS 38 [454 1 0 0] 
s 0.451606500 _1_ MAC  --- 32 ack 98 [13a 0 1 800] ------- [1:0 0:0 30 0] [11 0] 0 0
r 0.452391000 _0_ MAC  --- 32 ack 40 [13a 0 1 800] ------- [1:0 0:0 30 0] [11 0] 1 0
s 0.452401000 _0_ MAC  --- 0 ACK 38 [0 1 0 0] 
r 0.452416000 _0_ RTR  --- 36 tcp 1040 [0 0 0 0] ------- [0:0 1:0 32 0] [23 0] 0 0
r 0.452416000 _0_ RTR  --- 37 tcp 1040 [0 0 0 0] ------- [0:0 1:0 32 0] [24 0] 0 0
s 0.452416000 _0_ RTR  --- 36 tcp 1040 [0 0 0 0] ------- [0:0 1:0 30 1] [23 0] 0 0
s 0.452416000 _0_ RTR  --- 37 tcp 1040 [0 0 0 0] ------- [0:0 1:0 30 1] [24 0] 0 0
r 0.452705500 _1_ MAC  --- 0 ACK 38 [0 1 0 0] 
s 0.452855500 _1_ MAC  --- 0 RTS 44 [58e 0 1 0] 
r 0.453208000 _0_ MAC  --- 0 RTS 44 [58e 0 1 0] 
s 0.453218000 _0_ MAC  --- 0 CTS 38 [454 1 0 0] 
r 0.453522500 _1_ MAC  --- 0 CTS 38 [454 1 0 0] 
s 0.453532500 _1_ MAC  --- 35 ack 98 [13a 0 1 800] ------- [1:0 0:0 30 0] [12 0] 0 0
r 0.454317000 _0_ MAC  --- 35 ack 40 [13a 0 1 800] ------- [1:0 0:0 30 0] [12 0] 1 0
s 0.454327000 _0_ MAC  --- 0 ACK 38 [0 1 0 0] 
r 0.454342000 _0_ RTR  --- 38 tcp 1040 [0 0 0 0] ------- [0:0 1:0 32 0] [25 0] 0 0
r 0.454342000 _0_ RTR  --- 39 tcp 1040 [0 0 0 0] ------- [0:0 1:0 32 0] [26 0] 0 0
s 0.454342000 _0_ RTR  --- 38 tcp 1040 [0 0 0 0] ------- [0:0 1:0 30 1] [25 0] 0 0
s 0.454342000 _0_ RTR  --- 39 tcp 1040 [0 0 0 0] ------- [0:0 1:0 30 1] [26 0] 0 0
r 0.454631500 _1_ MAC  --- 0 ACK 38 [0 1 0 0] 
s 0.454721000 _0_ MAC  --- 0 RTS 44 [24ce 1 0 0] 
r 0.455073500 _1_ MAC  --- 0 RTS 44 [24ce 1 0 0] 
s 0.455083500 _1_ MAC  --- 0 CTS 38 [2394 0 0 0] 
r 0.455388000 _0_ MAC  --- 0 CTS 38 [2394 0 0 0] 
s 0.455398000 _0_ MAC  --- 20 tcp 1098 [13a 1 0 800] ------- [0:0 1:0 30 1] [13 0] 0 0
r 0.464182500 _1_ MAC  --- 20 tcp 1040 [13a 1 0 800] ------- [0:0 1:0 30 1] [13 0] 1 0
s 0.464192500 _1_ MAC  --- 0 ACK 38 [0 0 0 0] 
r 0.464207500 _1_ RTR  --- 40 ack 40 [0 0 0 0] ------- [1:0 0:0 32 0] [13 0] 0 0
s 0.464207500 _1_ RTR  --- 40 ack 40 [0 0 0 0] ------- [1:0 0:0 30 0] [13 0] 0 0
r 0.464497000 _0_ MAC  --- 0 ACK 38 [0 0 0 0] 
s 0.464607000 _0_ MAC  --- 0 RTS 44 [24ce 1 0 0] 
r 0.464959500 _1_ MAC  --- 0 RTS 44 [24ce 1 0 0] 
s 0.464969500 _1_ MAC  --- 0 CTS 38 [2394 0 0 0] 
r 0.465274000 _0_ MAC  --- 0 CTS 38 [2394 0 0 0] 
s 0.465284000 _0_ MAC  --- 21 tcp 1098 [13a 1 0 800] ------- [0:0 1:0 30 1] [14 0] 0 0
r 0.474068500 _1_ MAC  --- 21 tcp 1040 [13a 1 0 800] ------- [0:0 1:0 30 1] [14 0] 1 0
s 0.474078500 _1_ MAC  --- 0 ACK 38 [0 0 0 0] 
r 0.474093500 _1_ RTR  --- 41 ack 40 [0 0 0 0] ------- [1:0 0:0 32 0] [14 0] 0 0
s 0.474093500 _1_ RTR  --- 41 ack 40 [0 0 0 0] ------- [1:0 0:0 30 0] [14 0] 0 0
r 0.474383000 _0_ MAC  --- 0 ACK 38 [0 0 0 0] 
s 0.474533000 _0_ MAC  --- 0 RTS 44 [24ce 1 0 0] 
r 0.474885500 _1_ MAC  --- 0 RTS 44 [24ce 1 0 0] 
s 0.474895500 _1_ MAC  --- 0 CTS 38 [2394 0 0 0] 
r 0.475200000 _0_ MAC  --- 0 CTS 38 [2394 0 0 0] 
s 0.475210000 _0_ MAC  --- 23 tcp 1098 [13a 1 0 800] ------- [0:0 1:0 30 1] [15 0] 0 0
r 0.483994500 _1_ MAC  --- 23 tcp 1040 [13a 1 0 800] ------- [0:0 1:0 30 1] [15 0] 1 0
s 0.484004500 _1_ MAC  --- 0 ACK 38 [0 0 0 0] 
r 0.484019500 _1_ RTR  --- 42 ack 40 [0 0 0 0] ------- [1:0 0:0 32 0] [15 0] 0 0
s 0.484019500 _1_ RTR  --- 42 ack 40 [0 0 0 0] ------- [1:0 0:0 30 0] [15 0] 0 0
r 0.484309000 _0_ MAC  --- 0 ACK 38 [0 0 0 0] 
s 0.484599000 _0_ MAC  --- 0 RTS 44 [24ce 1 0 0] 
r 0.484951500 _1_ MAC  --- 0 RTS 44 [24ce 1 0 0] 
s 0.484961500 _1_ MAC  --- 0 CTS 38 [2394 0 0 0] 
r 0.485266000 _0_ MAC  --- 0 CTS 38 [2394 0 0 0] 
s 0.485276000 _0_ MAC  --- 24 tcp 1098 [13a 1 0 800] ------- [0:0 1:0 30 1] [16 0] 0 0
r 0.494060500 _1_ MAC  --- 24 tcp 1040 [13a 1 0 800] ------- [0:0 1:0 30 1] [16 0] 1 0
s 0.494070500 _1_ MAC  --- 0 ACK 38 [0 0 0 0] 
r 0.494085500 _1_ RTR  --- 43 ack 40 [0 0 0 0] ------- [1:0 0:0 32 0] [16 0] 0 0
s 0.494085500 _1_ RTR  --- 43 ack 40 [0 0 0 0] ------- [1:0 0:0 30 0] [16 0] 0 0
r 0.494375000 _0_ MAC  --- 0 ACK 38 [0 0 0 0] 
s 0.494444500 _1_ MAC  --- 0 RTS 44 [58e 0 1 0] 
r 0.494797000 _0_ MAC  --- 0 RTS 44 [58e 0 1 0] 
s 0.494807000 _0_ MAC  --- 0 CTS 38 [454 1 0 0] 
r 0.495111500 _1_ MAC  --- 0 CTS 38 [454 1 0 0] 
s 0.495121500 _1_ MAC  --- 40 ack 98 [13a 0 1 800] ------- [1:0 0:0 30 0] [13 0] 0 0
r 0.495906000 _0_ MAC  --- 40 ack 40 [13a 0 1 800] ------- [1:0 0:0 30 0] [13 0] 1 0
s 0.495916000 _0_ MAC  --- 0 ACK 38 [0 1 0 0] 
r 0.495931000 _0_ RTR  --- 44 tcp 1040 [0 0 0 0] ------- [0:0 1:0 32 0] [27 0] 0 0
r 0.495931000 _0_ RTR  --- 45 tcp 1040 [0 0 0 0] ------- [0:0 1:0 32 0] [28 0] 0 0
s 0.495931000 _0_ RTR  --- 44 tcp 1040 [0 0 0 0] ------- [0:0 1:0 30 1] [27 0] 0 0
s 0.495931000 _0_ RTR  --- 45 tcp 1040 [0 0 0 0] ------- [0:0 1:0 30 1] [28 0] 0 0
r 0.496220500 _1_ MAC  --- 0 ACK 38 [0 1 0 0] 
s 0.496430500 _1_ MAC  --- 0 RTS 44 [58e 0 1 0] 
r 0.496783000 _0_ MAC  --- 0 RTS 44 [58e 0 1 0] 
s 0.496793000 _0_ MAC  --- 0 CTS 38 [454 1 0 0] 
r 0.497097500 _1_ MAC  --- 0 CTS 38 [454 1 0 0] 
s 0.497107500 _1_ MAC  --- 41 ack 98 [13a 0 1 800] ------- [1:0 0:0 30 0] [14 0] 0 0
r 0.497892000 _0_ MAC  --- 41 ack 40 [13a 0 1 800] ------- [1:0 0:0 30 0] [14 0] 1 0
s 0.497902000 _0_ MAC  --- 0 ACK 38 [0 1 0 0] 
r 0.497917000 _0_ RTR  --- 46 tcp 1040 [0 0 0 0] ------- [0:0 1:0 32 0] [29 0] 0 0
r 0.497917000 _0_ RTR  --- 47 tcp 1040 [0 0 0 0] ------- [0:0 1:0 32 0] [30 0] 0 0
s 0.497917000 _0_ RTR  --- 46 tcp 1040 [0 0 0 0] ------- [0:0 1:0 30 1] [29 0] 0 0
s 0.497917000 _0_ RTR  --- 47 tcp 1040 [0 0 0 0] ------- [0:0 1:0 30 1] [30 0] 0 0
r 0.498206500 _1_ MAC  --- 0 ACK 38 [0 1 0 0] 
s 0.498396000 _0_ MAC  --- 0 RTS 44 [24ce 1 0 0] 
r 0.498748500 _1_ MAC  --- 0 RTS 44 [24ce 1 0 0] 
s 0.498758500 _1_ MAC  --- 0 CTS 38 [2394 0 0 0] 
r 0.499063000 _0_ MAC  --- 0 CTS 38 [2394 0 0 0] 
s 0.499073000 _0_ MAC  --- 28 tcp 1098 [13a 1 0 800] ------- [0:0 1:0 30 1] [17 0] 0 0
r 0.507857500 _1_ MAC  --- 28 tcp 1040 [13a 1 0 800] ------- [0:0 1:0 30 1] [17 0] 1 0
s 0.507867500 _1_ MAC  --- 0 ACK 38 [0 0 0 0] 
r 0.507882500 _1_ RTR  --- 48 ack 40 [0 0 0 0] ------- [1:0 0:0 32 0] [17 0] 0 0
s 0.507882500 _1_ RTR  --- 48 ack 40 [0 0 0 0] ------- [1:0 0:0 30 0] [17 0] 0 0
r 0.508172000 _0_ MAC  --- 0 ACK 38 [0 0 0 0] 
s 0.508362000 _0_ MAC  --- 0 RTS 44 [24ce 1 0 0] 
r 0.508714500 _1_ MAC  --- 0 RTS 44 [24ce 1 0 0] 
s 0.508724500 _1_ MAC  --- 0 CTS 38 [2394 0 0 0] 
r 0.509029000 _0_ MAC  --- 0 CTS 38 [2394 0 0 0] 
s 0.509039000 _0_ MAC  --- 29 tcp 1098 [13a 1 0 800] ------- [0:0 1:0 30 1] [18 0] 0 0
r 0.517823500 _1_ MAC  --- 29 tcp 1040 [13a 1 0 800] ------- [0:0 1:0 30 1] [18 0] 1 0
s 0.517833500 _1_ MAC  --- 0 ACK 38 [0 0 0 0] 
r 0.517848500 _1_ RTR  --- 49 ack 40 [0 0 0 0] ------- [1:0 0:0 32 0] [18 0] 0 0
s 0.517848500 _1_ RTR  --- 49 ack 40 [0 0 0 0] ------- [1:0 0:0 30 0] [18 0] 0 0
r 0.518138000 _0_ MAC  --- 0 ACK 38 [0 0 0 0] 
s 0.518387500 _1_ MAC  --- 0 RTS 44 [58e 0 1 0] 
r 0.518740000 _0_ MAC  --- 0 RTS 44 [58e 0 1 0] 
s 0.518750000 _0_ MAC  --- 0 CTS 38 [454 1 0 0] 
r 0.519054500 _1_ MAC  --- 0 CTS 38 [454 1 0 0] 
s 0.519064500 _1_ MAC  --- 42 ack 98 [13a 0 1 800] ------- [1:0 0:0 30 0] [15 0] 0 0
r 0.519849000 _0_ MAC  --- 42 ack 40 [13a 0 1 800] ------- [1:0 0:0 30 0] [15 0] 1 0
s 0.519859000 _0_ MAC  --- 0 ACK 38 [0 1 0 0] 
r 0.519874000 _0_ RTR  --- 50 tcp 1040 [0 0 0 0] ------- [0:0 1:0 32 0] [31 0] 0 0
r 0.519874000 _0_ RTR  --- 51 tcp 1040 [0 0 0 0] ------- [0:0 1:0 32 0] [32 0] 0 0
s 0.519874000 _0_ RTR  --- 50 tcp 1040 [0 0 0 0] ------- [0:0 1:0 30 1] [31 0] 0 0
s 0.519874000 _0_ RTR  --- 51 tcp 1040 [0 0 0 0] ------- [0:0 1:0 30 1] [32 0] 0 0
r 0.520163500 _1_ MAC  --- 0 ACK 38 [0 1 0 0] 
s 0.520573500 _1_ MAC  --- 0 RTS 44 [58e 0 1 0] 
r 0.520926000 _0_ MAC  --- 0 RTS 44 [58e 0 1 0] 
s 0.520936000 _0_ MAC  --- 0 CTS 38 [454 1 0 0] 
r 0.521240500 _1_ MAC  --- 0 CTS 38 [454 1 0 0] 
s 0.521250500 _1_ MAC  --- 43 ack 98 [13a 0 1 800] ------- [1:0 0:0 30 0] [16 0] 0 0
r 0.522035000 _0_ MAC  --- 43 ack 40 [13a 0 1 800] ------- [1:0 0:0 30 0] [16 0] 1 0
s 0.522045000 _0_ MAC  --- 0 ACK 38 [0 1 0 0] 
r 0.522060000 _0_ RTR  --- 52 tcp 1040 [0 0 0 0] ------- [0:0 1:0 32 0] [33 0] 0 0
r 0.522060000 _0_ RTR  --- 53 tcp 1040 [0 0 0 0] ------- [0:0 1:0 32 0] [34 0] 0 0
s 0.522060000 _0_ RTR  --- 52 tcp 1040 [0 0 0 0] ------- [0:0 1:0 30 1] [33 0] 0 0
s 0.522060000 _0_ RTR  --- 53 tcp 1040 [0 0 0 0] ------- [0:0 1:0 30 1] [34 0] 0 0
r 0.522349500 _1_ MAC  --- 0 ACK 38 [0 1 0 0] 
s 0.522419000 _0_ MAC  --- 0 RTS 44 [24ce 1 0 0] 
r 0.522771500 _1_ MAC  --- 0 RTS 44 [24ce 1 0 0] 
s 0.522781500 _1_ MAC  --- 0 CTS 38 [2394 0 0 0] 
r 0.523086000 _0_ MAC  --- 0 CTS 38 [2394 0 0 0] 
s 0.523096000 _0_ MAC  --- 30 tcp 1098 [13a 1 0 800] ------- [0:0 1:0 30 1] [19 0] 0 0
r 0.531880500 _1_ MAC  --- 30 tcp 1040 [13a 1 0 800] ------- [0:0 1:0 30 1] [19 0] 1 0
s 0.531890500 _1_ MAC  --- 0 ACK 38 [0 0 0 0] 
r 0.531905500 _1_ RTR  --- 54 ack 40 [0 0 0 0] ------- [1:0 0:0 32 0] [19 0] 0 0
s 0.531905500 _1_ RTR  --- 54 ack 40 [0 0 0 0] ------- [1:0 0:0 30 0] [19 0] 0 0
r 0.532195000 _0_ MAC  --- 0 ACK 38 [0 0 0 0] 
s 0.532285000 _0_ MAC  --- 0 RTS 44 [24ce 1 0 0] 
r 0.532637500 _1_ MAC  --- 0 RTS 44 [24ce 1 0 0] 
s 0.532647500 _1_ MAC  --- 0 CTS 38 [2394 0 0 0] 
r 0.532952000 _0_ MAC  --- 0 CTS 38 [2394 0 0 0] 
s 0.532962000 _0_ MAC  --- 31 tcp 1098 [13a 1 0 800] ------- [0:0 1:0 30 1] [20 0] 0 0
r 0.541746500 _1_ MAC  --- 31 tcp 1040 [13a 1 0 800] ------- [0:0 1:0 30 1] [20 0] 1 0
s 0.541756500 _1_ MAC  --- 0 ACK 38 [0 0 0 0] 
r 0.541771500 _1_ RTR  --- 55 ack 40 [0 0 0 0] ------- [1:0 0:0 32 0] [20 0] 0 0
s 0.541771500 _1_ RTR  --- 55 ack 40 [0 0 0 0] ------- [1:0 0:0 30 0] [20 0] 0 0
r 0.542061000 _0_ MAC  --- 0 ACK 38 [0 0 0 0] 
s 0.542171000 _0_ MAC  --- 0 RTS 44 [24ce 1 0 0] 
r 0.542523500 _1_ MAC  --- 0 RTS 44 [24ce 1 0 0] 
s 0.542533500 _1_ MAC  --- 0 CTS 38 [2394 0 0 0] 
r 0.542838000 _0_ MAC  --- 0 CTS 38 [2394 0 0 0] 
s 0.542848000 _0_ MAC  --- 33 tcp 1098 [13a 1 0 800] ------- [0:0 1:0 30 1] [21 0] 0 0
r 0.551632500 _1_ MAC  --- 33 tcp 1040 [13a 1 0 800] ------- [0:0 1:0 30 1] [21 0] 1 0
s 0.551642500 _1_ MAC  --- 0 ACK 38 [0 0 0 0] 
r 0.551657500 _1_ RTR  --- 56 ack 40 [0 0 0 0] ------- [1:0 0:0 32 0] [21 0] 0 0
s 0.551657500 _1_ RTR  --- 56 ack 40 [0 0 0 0] ------- [1:0 0:0 30 0] [21 0] 0 0
r 0.551947000 _0_ MAC  --- 0 ACK 38 [0 0 0 0] 
s 0.552096500 _1_ MAC  --- 0 RTS 44 [58e 0 1 0] 
r 0.552449000 _0_ MAC  --- 0 RTS 44 [58e 0 1 0] 
s 0.552459000 _0_ MAC  --- 0 CTS 38 [454 1 0 0] 
r 0.552763500 _1_ MAC  --- 0 CTS 38 [454 1 0 0] 
s 0.552773500 _1_ MAC  --- 48 ack 98 [13a 0 1 800] ------- [1:0 0:0 30 0] [17 0] 0 0
r 0.553558000 _0_ MAC  --- 48 ack 40 [13a 0 1 800] ------- [1:0 0:0 30 0] [17 0] 1 0
s 0.553568000 _0_ MAC  --- 0 ACK 38 [0 1 0 0] 
r 0.553583000 _0_ RTR  --- 57 tcp 1040 [0 0 0 0] ------- [0:0 1:0 32 0] [35 0] 0 0
r 0.553583000 _0_ RTR  --- 58 tcp 1040 [0 0 0 0] ------- [0:0 1:0 32 0] [36 0] 0 0
s 0.553583000 _0_ RTR  --- 57 tcp 1040 [0 0 0 0] ------- [0:0 1:0 30 1] [35 0] 0 0